System: peptide + 128 MYC + 4480 SOL (corrected ordering)
44382
    1LEU      N    1   2.124   3.615   1.432
    1LEU     H1    2   2.135   3.515   1.431
    1LEU     H2    3   2.203   3.656   1.477
    1LEU     H3    4   2.041   3.638   1.483
    1LEU     CA    5   2.113   3.665   1.295
    1LEU     HA    6   2.031   3.619   1.260
    1LEU     CB    7   2.096   3.818   1.294
    1LEU    HB1    8   2.093   3.847   1.198
    1LEU    HB2    9   2.177   3.857   1.337
    1LEU     CG   10   1.972   3.877   1.364
    1LEU     HG   11   1.971   3.840   1.457
    1LEU    CD1   12   1.840   3.834   1.299
    1LEU   HD11   13   1.763   3.875   1.348
    1LEU   HD12   14   1.838   3.865   1.204
    1LEU   HD13   15   1.832   3.735   1.302
    1LEU    CD2   16   1.981   4.030   1.370
    1LEU   HD21   17   1.899   4.067   1.416
    1LEU   HD22   18   2.062   4.057   1.420
    1LEU   HD23   19   1.985   4.067   1.277
    1LEU      C   20   2.229   3.623   1.206
    1LEU      O   21   2.338   3.600   1.256
    2ILE      N   22   2.212   3.619   1.070
    2ILE      H   23   2.119   3.633   1.036
    2ILE     CA   24   2.317   3.597   0.969
    2ILE     HA   25   2.372   3.524   1.010
    2ILE     CB   26   2.263   3.545   0.833
    2ILE     HB   27   2.342   3.536   0.773
    2ILE    CG2   28   2.199   3.406   0.849
    2ILE   HG21   29   2.165   3.374   0.761
    2ILE   HG22   30   2.268   3.342   0.883
    2ILE   HG23   31   2.123   3.412   0.914
    2ILE    CG1   32   2.170   3.644   0.758
    2ILE   HG11   33   2.213   3.735   0.760
    2ILE   HG12   34   2.083   3.648   0.807
    2ILE     CD   35   2.141   3.611   0.612
    2ILE    HD1   36   2.080   3.681   0.574
    2ILE    HD2   37   2.226   3.609   0.560
    2ILE    HD3   38   2.096   3.522   0.606
    2ILE      C   39   2.404   3.719   0.953
    2ILE      O   40   2.520   3.703   0.916
    3SER      N   41   2.357   3.846   0.973
    3SER      H   42   2.260   3.856   0.996
    3SER     CA   43   2.435   3.970   0.964
    3SER     HA   44   2.494   3.959   0.883
    3SER     CB   45   2.346   4.094   0.944
    3SER    HB1   46   2.402   4.175   0.929
    3SER    HB2   47   2.287   4.108   1.023
    3SER     OG   48   2.263   4.080   0.832
    3SER     HG   49   2.207   4.162   0.822
    3SER      C   50   2.522   3.986   1.086
    3SER      O   51   2.639   4.015   1.070
    4GLY      N   52   2.474   3.962   1.212
    4GLY      H   53   2.376   3.943   1.220
    4GLY     CA   54   2.552   3.961   1.336
    4GLY    HA1   55   2.489   3.945   1.412
    4GLY    HA2   56   2.594   4.052   1.346
    4GLY      C   57   2.660   3.856   1.337
    4GLY      O   58   2.764   3.882   1.396
    5LEU      N   59   2.646   3.737   1.271
    5LEU      H   60   2.557   3.719   1.230
    5LEU     CA   61   2.748   3.633   1.256
    5LEU     HA   62   2.782   3.613   1.348
    5LEU     CB   63   2.689   3.504   1.194
    5LEU    HB1   64   2.646   3.531   1.108
    5LEU    HB2   65   2.620   3.470   1.257
    5LEU     CG   66   2.784   3.386   1.162
    5LEU     HG   67   2.855   3.423   1.102
    5LEU    CD1   68   2.710   3.275   1.087
    5LEU   HD11   69   2.773   3.200   1.068
    5LEU   HD12   70   2.635   3.241   1.144
    5LEU   HD13   71   2.673   3.310   1.001
    5LEU    CD2   72   2.856   3.331   1.285
    5LEU   HD21   73   2.916   3.256   1.258
    5LEU   HD22   74   2.912   3.404   1.326
    5LEU   HD23   75   2.789   3.299   1.351
    5LEU      C   76   2.862   3.686   1.172
    5LEU      O   77   2.976   3.670   1.211
    6ALA      N   78   2.836   3.739   1.049
    6ALA      H   79   2.740   3.756   1.025
    6ALA     CA   80   2.936   3.775   0.948
    6ALA     HA   81   3.020   3.807   0.991
    6ALA     CB   82   2.967   3.649   0.868
    6ALA    HB1   83   3.035   3.671   0.798
    6ALA    HB2   84   3.003   3.579   0.929
    6ALA    HB3   85   2.884   3.616   0.824
    6ALA      C   86   2.886   3.893   0.868
    6ALA      O   87   2.828   3.874   0.763
    7ALA      N   88   2.896   4.020   0.919
    7ALA      H   89   2.942   4.031   1.007
    7ALA     CA   90   2.845   4.141   0.853
    7ALA     HA   91   2.752   4.117   0.825
    7ALA     CB   92   2.841   4.260   0.949
    7ALA    HB1   93   2.805   4.341   0.901
    7ALA    HB2   94   2.782   4.239   1.027
    7ALA    HB3   95   2.933   4.279   0.982
    7ALA      C   96   2.925   4.177   0.731
    7ALA      O   97   2.866   4.222   0.634
    8ASN      N   98   3.061   4.162   0.728
    8ASN      H   99   3.104   4.125   0.811
    8ASN     CA  100   3.149   4.194   0.616
    8ASN     HA  101   3.103   4.267   0.567
    8ASN     CB  102   3.288   4.241   0.666
    8ASN    HB1  103   3.344   4.265   0.587
    8ASN    HB2  104   3.331   4.166   0.716
    8ASN     CG  105   3.281   4.361   0.756
    8ASN    OD1  106   3.233   4.465   0.715
    8ASN    ND2  107   3.327   4.355   0.885
    8ASN   HD21  108   3.366   4.270   0.920
    8ASN   HD22  109   3.321   4.436   0.943
    8ASN      C  110   3.163   4.078   0.519
    8ASN      O  111   3.218   4.103   0.413
    9PHE      N  112   3.113   3.952   0.542
    9PHE      H  113   3.068   3.937   0.629
    9PHE     CA  114   3.121   3.838   0.449
    9PHE     HA  115   3.196   3.862   0.388
    9PHE     CB  116   3.153   3.706   0.520
    9PHE    HB1  117   3.157   3.633   0.451
    9PHE    HB2  118   3.079   3.686   0.584
    9PHE     CG  119   3.283   3.705   0.597
    9PHE    CD1  120   3.393   3.631   0.549
    9PHE    HD1  121   3.386   3.583   0.462
    9PHE    CE1  122   3.512   3.623   0.624
    9PHE    HE1  123   3.588   3.568   0.589
    9PHE     CZ  124   3.524   3.691   0.745
    9PHE     HZ  125   3.609   3.684   0.798
    9PHE    CE2  126   3.417   3.767   0.793
    9PHE    HE2  127   3.425   3.817   0.879
    9PHE    CD2  128   3.297   3.774   0.720
    9PHE    HD2  129   3.221   3.828   0.755
    9PHE      C  130   2.993   3.824   0.370
    9PHE      O  131   3.003   3.769   0.262
   10LEU      N  132   2.870   3.868   0.412
   10LEU      H  133   2.863   3.903   0.505
   10LEU     CA  134   2.749   3.868   0.329
   10LEU     HA  135   2.744   3.773   0.299
   10LEU     CB  136   2.620   3.902   0.407
   10LEU    HB1  137   2.545   3.904   0.340
   10LEU    HB2  138   2.632   3.993   0.446
   10LEU     CG  139   2.578   3.807   0.521
   10LEU     HG  140   2.656   3.799   0.582
   10LEU    CD1  141   2.547   3.664   0.476
   10LEU   HD11  142   2.520   3.609   0.555
   10LEU   HD12  143   2.472   3.665   0.409
   10LEU   HD13  144   2.628   3.624   0.433
   10LEU    CD2  145   2.458   3.866   0.596
   10LEU   HD21  146   2.431   3.804   0.669
   10LEU   HD22  147   2.483   3.954   0.634
   10LEU   HD23  148   2.381   3.877   0.532
   10LEU      C  149   2.762   3.958   0.207
   10LEU      O  150   2.714   3.912   0.105
   11PRO      N  151   2.821   4.082   0.203
   11PRO     CD  152   2.868   4.162   0.317
   11PRO    HD1  153   2.921   4.104   0.379
   11PRO    HD2  154   2.789   4.200   0.366
   11PRO     CG  155   2.953   4.272   0.257
   11PRO    HG1  156   3.047   4.241   0.240
   11PRO    HG2  157   2.956   4.353   0.316
   11PRO     CB  158   2.879   4.300   0.128
   11PRO    HB1  159   2.937   4.348   0.063
   11PRO    HB2  160   2.796   4.354   0.145
   11PRO     CA  161   2.845   4.159   0.080
   11PRO     HA  162   2.763   4.155   0.023
   11PRO      C  163   2.954   4.101  -0.009
   11PRO      O  164   2.954   4.134  -0.126
   12GLN      N  165   3.050   4.015   0.037
   12GLN      H  166   3.050   3.996   0.136
   12GLN     CA  167   3.155   3.947  -0.041
   12GLN     HA  168   3.183   4.016  -0.108
   12GLN     CB  169   3.274   3.904   0.048
   12GLN    HB1  170   3.339   3.854  -0.009
   12GLN    HB2  171   3.239   3.844   0.120
   12GLN     CG  172   3.349   4.020   0.115
   12GLN    HG1  173   3.283   4.076   0.164
   12GLN    HG2  174   3.393   4.074   0.044
   12GLN     CD  175   3.456   3.979   0.214
   12GLN    OE1  176   3.501   3.866   0.214
   12GLN    NE2  177   3.504   4.069   0.304
   12GLN   HE21  178   3.468   4.163   0.305
   12GLN   HE22  179   3.574   4.042   0.370
   12GLN      C  180   3.102   3.824  -0.113
   12GLN      O  181   3.154   3.792  -0.218
   13ILE      N  182   3.003   3.747  -0.059
   13ILE      H  183   2.969   3.776   0.030
   13ILE     CA  184   2.939   3.627  -0.115
   13ILE     HA  185   3.009   3.573  -0.162
   13ILE     CB  186   2.877   3.538  -0.002
   13ILE     HB  187   2.812   3.597   0.046
   13ILE    CG2  188   2.796   3.418  -0.057
   13ILE   HG21  189   2.759   3.366   0.020
   13ILE   HG22  190   2.721   3.452  -0.113
   13ILE   HG23  191   2.856   3.360  -0.111
   13ILE    CG1  192   2.984   3.489   0.098
   13ILE   HG11  193   3.047   3.565   0.116
   13ILE   HG12  194   3.034   3.414   0.056
   13ILE     CD  195   2.930   3.440   0.233
   13ILE    HD1  196   3.007   3.411   0.291
   13ILE    HD2  197   2.881   3.514   0.278
   13ILE    HD3  198   2.869   3.363   0.218
   13ILE      C  199   2.836   3.671  -0.216
   13ILE      O  200   2.823   3.605  -0.318
   14LEU      N  201   2.758   3.782  -0.196
   14LEU      H  202   2.769   3.827  -0.107
   14LEU     CA  203   2.661   3.843  -0.288
   14LEU     HA  204   2.604   3.767  -0.320
   14LEU     CB  205   2.573   3.946  -0.217
   14LEU    HB1  206   2.633   4.018  -0.182
   14LEU    HB2  207   2.528   3.900  -0.140
   14LEU     CG  208   2.462   4.015  -0.299
   14LEU     HG  209   2.507   4.059  -0.377
   14LEU    CD1  210   2.360   3.917  -0.359
   14LEU   HD11  211   2.292   3.968  -0.411
   14LEU   HD12  212   2.407   3.853  -0.420
   14LEU   HD13  213   2.316   3.867  -0.285
   14LEU    CD2  214   2.391   4.122  -0.216
   14LEU   HD21  215   2.320   4.166  -0.271
   14LEU   HD22  216   2.349   4.080  -0.135
   14LEU   HD23  217   2.457   4.191  -0.187
   14LEU      C  218   2.733   3.904  -0.406
   14LEU      O  219   2.677   3.901  -0.514
   15LYS      N  220   2.856   3.963  -0.394
   15LYS      H  221   2.894   3.967  -0.301
   15LYS     CA  222   2.939   4.019  -0.502
   15LYS     HA  223   2.878   4.073  -0.560
   15LYS     CB  224   3.047   4.111  -0.442
   15LYS    HB1  225   3.106   4.056  -0.383
   15LYS    HB2  226   3.001   4.181  -0.387
   15LYS     CG  227   3.138   4.183  -0.542
   15LYS    HG1  228   3.081   4.238  -0.604
   15LYS    HG2  229   3.189   4.115  -0.594
   15LYS     CD  230   3.238   4.277  -0.473
   15LYS    HD1  231   3.293   4.223  -0.409
   15LYS    HD2  232   3.187   4.347  -0.423
   15LYS     CE  233   3.333   4.345  -0.572
   15LYS    HE1  234   3.280   4.399  -0.637
   15LYS    HE2  235   3.385   4.276  -0.621
   15LYS     NZ  236   3.428   4.435  -0.507
   15LYS    HZ1  237   3.487   4.476  -0.577
   15LYS    HZ2  238   3.379   4.506  -0.458
   15LYS    HZ3  239   3.484   4.383  -0.443
   15LYS      C  240   2.998   3.910  -0.588
   15LYS      O  241   3.018   3.935  -0.706
   16LYS      N  242   3.033   3.788  -0.537
   16LYS      H  243   3.018   3.774  -0.439
   16LYS     CA  244   3.091   3.675  -0.611
   16LYS     HA  245   3.164   3.712  -0.668
   16LYS     CB  246   3.146   3.571  -0.511
   16LYS    HB1  247   3.069   3.534  -0.459
   16LYS    HB2  248   3.209   3.618  -0.449
   16LYS     CG  249   3.222   3.452  -0.572
   16LYS    HG1  250   3.299   3.487  -0.625
   16LYS    HG2  251   3.160   3.403  -0.633
   16LYS     CD  252   3.274   3.355  -0.466
   16LYS    HD1  253   3.196   3.322  -0.412
   16LYS    HD2  254   3.337   3.405  -0.406
   16LYS     CE  255   3.348   3.232  -0.521
   16LYS    HE1  256   3.289   3.185  -0.586
   16LYS    HE2  257   3.371   3.171  -0.445
   16LYS     NZ  258   3.473   3.263  -0.590
   16LYS    HZ1  259   3.514   3.177  -0.622
   16LYS    HZ2  260   3.454   3.322  -0.668
   16LYS    HZ3  261   3.536   3.309  -0.527
   16LYS      C  262   2.988   3.613  -0.704
   16LYS      O  263   3.023   3.583  -0.817
   17ILE      N  264   2.861   3.590  -0.662
   17ILE      H  265   2.840   3.616  -0.568
   17ILE     CA  266   2.749   3.530  -0.738
   17ILE     HA  267   2.793   3.462  -0.795
   17ILE     CB  268   2.646   3.459  -0.644
   17ILE     HB  269   2.577   3.416  -0.703
   17ILE    CG2  270   2.714   3.347  -0.563
   17ILE   HG21  271   2.646   3.303  -0.504
   17ILE   HG22  272   2.753   3.280  -0.626
   17ILE   HG23  273   2.786   3.387  -0.507
   17ILE    CG1  274   2.564   3.557  -0.556
   17ILE   HG11  275   2.519   3.623  -0.616
   17ILE   HG12  276   2.628   3.605  -0.496
   17ILE     CD  277   2.455   3.498  -0.466
   17ILE    HD1  278   2.411   3.572  -0.415
   17ILE    HD2  279   2.387   3.451  -0.522
   17ILE    HD3  280   2.496   3.433  -0.402
   17ILE      C  281   2.685   3.630  -0.832
   17ILE      O  282   2.628   3.588  -0.931
   18ALA      N  283   2.686   3.765  -0.805
   18ALA      H  284   2.727   3.792  -0.718
   18ALA     CA  285   2.634   3.873  -0.890
   18ALA     HA  286   2.554   3.834  -0.936
   18ALA     CB  287   2.592   3.994  -0.805
   18ALA    HB1  288   2.557   4.066  -0.865
   18ALA    HB2  289   2.520   3.966  -0.741
   18ALA    HB3  290   2.671   4.028  -0.754
   18ALA      C  291   2.734   3.913  -0.995
   18ALA      O  292   2.692   3.969  -1.095
   19ARG      N  293   2.867   3.884  -0.985
   19ARG      H  294   2.899   3.849  -0.896
   19ARG     CA  295   2.968   3.898  -1.090
   19ARG     HA  296   2.954   3.987  -1.134
   19ARG     CB  297   3.110   3.895  -1.031
   19ARG    HB1  298   3.125   3.804  -0.991
   19ARG    HB2  299   3.116   3.964  -0.959
   19ARG     CG  300   3.223   3.921  -1.132
   19ARG    HG1  301   3.210   4.013  -1.171
   19ARG    HG2  302   3.217   3.853  -1.205
   19ARG     CD  303   3.363   3.915  -1.072
   19ARG    HD1  304   3.431   3.935  -1.142
   19ARG    HD2  305   3.380   3.824  -1.034
   19ARG     NE  306   3.380   4.012  -0.964
   19ARG     HE  307   3.296   4.040  -0.917
   19ARG     CZ  308   3.496   4.069  -0.920
   19ARG    NH1  309   3.611   3.996  -0.913
   19ARG   HH11  310   3.612   3.900  -0.941
   19ARG   HH12  311   3.695   4.039  -0.881
   19ARG    NH2  312   3.494   4.199  -0.881
   19ARG   HH21  313   3.408   4.251  -0.885
   19ARG   HH22  314   3.578   4.243  -0.849
   19ARG      C  315   2.946   3.789  -1.193
   19ARG      O  316   2.954   3.819  -1.312
   20LYS      N  317   2.914   3.662  -1.156
   20LYS      H  318   2.912   3.643  -1.057
   20LYS     CA  319   2.882   3.550  -1.245
   20LYS     HA  320   2.960   3.542  -1.307
   20LYS     CB  321   2.864   3.418  -1.167
   20LYS    HB1  322   2.783   3.427  -1.109
   20LYS    HB2  323   2.945   3.405  -1.110
   20LYS     CG  324   2.845   3.293  -1.254
   20LYS    HG1  325   2.925   3.285  -1.314
   20LYS    HG2  326   2.763   3.306  -1.310
   20LYS     CD  327   2.830   3.164  -1.174
   20LYS    HD1  328   2.748   3.172  -1.117
   20LYS    HD2  329   2.911   3.154  -1.115
   20LYS     CE  330   2.818   3.037  -1.260
   20LYS    HE1  331   2.814   2.957  -1.200
   20LYS    HE2  332   2.898   3.030  -1.319
   20LYS     NZ  333   2.700   3.032  -1.346
   20LYS    HZ1  334   2.700   2.946  -1.397
   20LYS    HZ2  335   2.617   3.036  -1.289
   20LYS    HZ3  336   2.702   3.109  -1.409
   20LYS      C  337   2.760   3.581  -1.330
   20LYS      O  338   2.760   3.543  -1.446
   21SER      N  339   2.651   3.649  -1.281
   21SER      H  340   2.656   3.681  -1.186
   21SER     CA  341   2.528   3.680  -1.356
   21SER     HA  342   2.496   3.590  -1.384
   21SER     CB  343   2.420   3.747  -1.269
   21SER    HB1  344   2.399   3.690  -1.189
   21SER    HB2  345   2.337   3.762  -1.322
   21SER     OG  346   2.458   3.872  -1.219
   21SER     HG  347   2.384   3.911  -1.164
   21SER      C  348   2.555   3.761  -1.481
   21SER    OC1  349   2.638   3.864  -1.485
   21SER    OC2  350   2.499   3.730  -1.585
   22MYC   5H15  351   0.697   6.211   6.644
   22MYC    C80  352   0.681   6.256   6.743
   22MYC   3H15  353   0.764   6.327   6.756
   22MYC   4H15  354   0.589   6.316   6.744
   22MYC    C79  355   0.665   6.148   6.851
   22MYC   1H15  356   0.757   6.090   6.859
   22MYC   2H15  357   0.594   6.075   6.811
   22MYC    C78  358   0.613   6.200   6.986
   22MYC   9H14  359   0.507   6.226   6.979
   22MYC   0H15  360   0.670   6.290   7.012
   22MYC    C77  361   0.648   6.108   7.104
   22MYC   7H14  362   0.752   6.084   7.127
   22MYC   8H14  363   0.607   6.007   7.090
   22MYC    C76  364   0.587   6.167   7.232
   22MYC   5H14  365   0.483   6.200   7.221
   22MYC   6H14  366   0.635   6.263   7.257
   22MYC    C75  367   0.594   6.075   7.355
   22MYC   3H14  368   0.693   6.028   7.355
   22MYC   4H14  369   0.524   5.992   7.338
   22MYC    C74  370   0.558   6.153   7.483
   22MYC   1H14  371   0.448   6.160   7.484
   22MYC   2H14  372   0.602   6.253   7.487
   22MYC    C73  373   0.597   6.076   7.610
   22MYC   9H13  374   0.699   6.037   7.603
   22MYC   0H14  375   0.522   5.996   7.605
   22MYC    C72  376   0.568   6.153   7.740
   22MYC   7H13  377   0.462   6.181   7.749
   22MYC   8H13  378   0.627   6.245   7.748
   22MYC    C71  379   0.584   6.065   7.865
   22MYC   5H13  380   0.679   6.010   7.856
   22MYC   6H13  381   0.500   5.995   7.872
   22MYC    C70  382   0.571   6.147   7.995
   22MYC   3H13  383   0.471   6.189   8.004
   22MYC   4H13  384   0.642   6.228   7.973
   22MYC    C69  385   0.610   6.080   8.128
   22MYC   1H13  386   0.714   6.048   8.135
   22MYC   2H13  387   0.550   5.988   8.133
   22MYC    C68  388   0.580   6.172   8.247
   22MYC   9H12  389   0.474   6.201   8.250
   22MYC   0H13  390   0.634   6.267   8.236
   22MYC    C67  391   0.626   6.118   8.383
   22MYC   7H12  392   0.734   6.131   8.394
   22MYC   8H12  393   0.606   6.010   8.391
   22MYC    C66  394   0.551   6.197   8.492
   22MYC   5H12  395   0.443   6.190   8.478
   22MYC   6H12  396   0.562   6.306   8.486
   22MYC    C65  397   0.577   6.147   8.635
   22MYC   3H12  398   0.675   6.182   8.670
   22MYC   4H12  399   0.592   6.038   8.629
   22MYC    C64  400   0.465   6.175   8.736
   22MYC   1H12  401   0.369   6.125   8.720
   22MYC   2H12  402   0.448   6.283   8.728
   22MYC    C63  403   0.517   6.144   8.877
   22MYC   9H11  404   0.618   6.183   8.890
   22MYC   0H12  405   0.520   6.035   8.894
   22MYC    C62  406   0.421   6.192   8.988
   22MYC   7H11  407   0.325   6.142   8.975
   22MYC   8H11  408   0.404   6.300   8.983
   22MYC    C61  409   0.473   6.161   9.129
   22MYC   5H11  410   0.578   6.193   9.126
   22MYC   6H11  411   0.466   6.053   9.143
   22MYC    C60  412   0.399   6.230   9.243
   22MYC   4H11  413   0.290   6.232   9.237
   22MYC    C58  414   0.459   6.207   9.379
   22MYC   1H11  415   0.558   6.162   9.384
   22MYC    C59  416   0.453   6.346   9.321
   22MYC   2H11  417   0.383   6.421   9.356
   22MYC   3H11  418   0.544   6.393   9.283
   22MYC    C57  419   0.381   6.177   9.507
   22MYC   9H10  420   0.357   6.071   9.519
   22MYC   0H11  421   0.289   6.235   9.510
   22MYC    C56  422   0.461   6.211   9.634
   22MYC   7H10  423   0.467   6.319   9.648
   22MYC   8H10  424   0.565   6.176   9.623
   22MYC    C55  425   0.385   6.163   9.759
   22MYC   5H10  426   0.403   6.055   9.758
   22MYC   6H10  427   0.277   6.174   9.747
   22MYC    C54  428   0.434   6.232   9.887
   22MYC   3H10  429   0.416   6.340   9.888
   22MYC   4H10  430   0.543   6.224   9.897
   22MYC    C53  431   0.371   6.172  10.014
   22MYC   1H10  432   0.381   6.063  10.014
   22MYC   2H10  433   0.264   6.197  10.015
   22MYC    C52  434   0.432   6.249  10.132
   22MYC    H99  435   0.421   6.358  10.123
   22MYC   0H10  436   0.539   6.229  10.129
   22MYC    C51  437   0.372   6.202  10.266
   22MYC    H97  438   0.380   6.093  10.258
   22MYC    H98  439   0.269   6.238  10.267
   22MYC    C50  440   0.448   6.241  10.394
   22MYC    H95  441   0.409   6.337  10.433
   22MYC    H96  442   0.551   6.261  10.362
   22MYC    C49  443   0.434   6.145  10.513
   22MYC    H93  444   0.496   6.057  10.492
   22MYC    H94  445   0.325   6.128  10.518
   22MYC    C48  446   0.464   6.206  10.651
   22MYC    H91  447   0.417   6.303  10.672
   22MYC    H92  448   0.570   6.234  10.657
   22MYC    C47  449   0.414   6.117  10.766
   22MYC    H89  450   0.462   6.019  10.762
   22MYC    H90  451   0.307   6.104  10.749
   22MYC    C46  452   0.425   6.170  10.910
   22MYC    H87  453   0.350   6.250  10.916
   22MYC    H88  454   0.523   6.217  10.925
   22MYC    C45  455   0.404   6.060  11.015
   22MYC    H85  456   0.485   5.986  11.014
   22MYC    H86  457   0.317   5.994  10.999
   22MYC    C44  458   0.399   6.114  11.159
   22MYC    H83  459   0.365   6.035  11.227
   22MYC    H84  460   0.314   6.184  11.165
   22MYC    C18  461   0.521   6.188  11.212
   22MYC    H31  462   0.616   6.137  11.199
   22MYC    C17  463   0.517   6.337  11.189
   22MYC    H30  464   0.428   6.365  11.133
   22MYC    C19  465   0.505   6.282  11.329
   22MYC    H32  466   0.407   6.288  11.375
   22MYC    H33  467   0.596   6.298  11.387
   22MYC    C16  468   0.644   6.404  11.140
   22MYC    H28  469   0.699   6.339  11.070
   22MYC    H29  470   0.721   6.425  11.216
   22MYC    C15  471   0.624   6.546  11.085
   22MYC    H26  472   0.725   6.586  11.075
   22MYC    H27  473   0.568   6.599  11.163
   22MYC    C14  474   0.548   6.548  10.951
   22MYC    H24  475   0.448   6.514  10.980
   22MYC    H25  476   0.591   6.478  10.878
   22MYC    C13  477   0.545   6.687  10.885
   22MYC    H22  478   0.650   6.715  10.868
   22MYC    H23  479   0.506   6.759  10.958
   22MYC    C12  480   0.467   6.694  10.753
   22MYC    H20  481   0.368   6.652  10.773
   22MYC    H21  482   0.523   6.628  10.685
   22MYC    C11  483   0.454   6.840  10.706
   22MYC    H18  484   0.552   6.888  10.704
   22MYC    H19  485   0.403   6.892  10.787
   22MYC    C10  486   0.384   6.854  10.569
   22MYC    H16  487   0.395   6.958  10.534
   22MYC    H17  488   0.277   6.833  10.578
   22MYC     C9  489   0.441   6.770  10.454
   22MYC    H14  490   0.427   6.665  10.485
   22MYC    H15  491   0.550   6.781  10.454
   22MYC     C8  492   0.396   6.804  10.311
   22MYC    H12  493   0.408   6.913  10.308
   22MYC    H13  494   0.290   6.779  10.299
   22MYC     C7  495   0.483   6.731  10.207
   22MYC    H10  496   0.468   6.624  10.220
   22MYC    H11  497   0.586   6.758  10.233
   22MYC     C6  498   0.456   6.771  10.061
   22MYC     H8  499   0.473   6.878  10.040
   22MYC     H9  500   0.347   6.763  10.046
   22MYC     C5  501   0.528   6.677   9.963
   22MYC     H6  502   0.483   6.577   9.970
   22MYC     H7  503   0.625   6.663  10.011
   22MYC     C4  504   0.544   6.723   9.817
   22MYC     H4  505   0.637   6.674   9.785
   22MYC     H5  506   0.578   6.827   9.814
   22MYC     C2  507   0.427   6.704   9.720
   22MYC     H2  508   0.474   6.674   9.625
   22MYC     O3  509   0.345   6.593   9.755
   22MYC     H3  510   0.399   6.547   9.822
   22MYC     C1  511   0.339   6.824   9.682
   22MYC     H1  512   0.411   6.904   9.660
   22MYC    C81  513   0.251   6.857   9.802
   22MYC    O82  514   0.144   6.803   9.825
   22MYC    O83  515   0.269   6.979   9.855
   22MYC   6H15  516   0.188   7.002   9.905
   22MYC    C20  517   0.252   6.808   9.556
   22MYC    H34  518   0.198   6.713   9.564
   22MYC    H35  519   0.183   6.893   9.547
   22MYC    C21  520   0.330   6.803   9.424
   22MYC    H36  521   0.375   6.902   9.407
   22MYC    H37  522   0.412   6.731   9.430
   22MYC    C22  523   0.237   6.778   9.304
   22MYC    H38  524   0.163   6.701   9.327
   22MYC    H39  525   0.181   6.870   9.282
   22MYC    C23  526   0.314   6.733   9.178
   22MYC    H40  527   0.398   6.803   9.166
   22MYC    H41  528   0.359   6.634   9.190
   22MYC    C24  529   0.229   6.737   9.050
   22MYC    H42  530   0.158   6.655   9.062
   22MYC    H43  531   0.178   6.834   9.041
   22MYC    C25  532   0.310   6.728   8.919
   22MYC    H44  533   0.395   6.797   8.921
   22MYC    H45  534   0.354   6.628   8.910
   22MYC    C26  535   0.228   6.761   8.793
   22MYC    H46  536   0.134   6.704   8.790
   22MYC    H47  537   0.206   6.867   8.810
   22MYC    C27  538   0.293   6.739   8.655
   22MYC    H48  539   0.398   6.770   8.665
   22MYC    H49  540   0.300   6.631   8.637
   22MYC    C28  541   0.222   6.804   8.535
   22MYC    H50  542   0.113   6.800   8.540
   22MYC    H51  543   0.235   6.913   8.542
   22MYC    C29  544   0.281   6.753   8.402
   22MYC    H52  545   0.380   6.798   8.394
   22MYC    H53  546   0.299   6.644   8.406
   22MYC    C30  547   0.208   6.799   8.275
   22MYC    H54  548   0.107   6.761   8.293
   22MYC    H55  549   0.205   6.908   8.286
   22MYC    C31  550   0.257   6.751   8.137
   22MYC    H56  551   0.359   6.786   8.114
   22MYC    H57  552   0.272   6.643   8.134
   22MYC    C32  553   0.154   6.796   8.032
   22MYC    H58  554   0.055   6.752   8.043
   22MYC    H59  555   0.145   6.905   8.044
   22MYC    C33  556   0.200   6.761   7.889
   22MYC    H60  557   0.298   6.809   7.880
   22MYC    H61  558   0.214   6.653   7.876
   22MYC    C34  559   0.105   6.805   7.777
   22MYC    H62  560   0.007   6.757   7.787
   22MYC    H63  561   0.089   6.913   7.779
   22MYC    C35  562   0.150   6.758   7.637
   22MYC    H64  563   0.255   6.782   7.618
   22MYC    H65  564   0.150   6.649   7.639
   22MYC    C36  565   0.069   6.808   7.516
   22MYC    H66  566  -0.035   6.783   7.542
   22MYC    H67  567   0.081   6.917   7.513
   22MYC    C37  568   0.118   6.741   7.386
   22MYC    H68  569   0.227   6.751   7.382
   22MYC    H69  570   0.087   6.636   7.394
   22MYC    C38  571   0.057   6.796   7.256
   22MYC    H70  572  -0.045   6.755   7.254
   22MYC    H71  573   0.056   6.906   7.256
   22MYC    C39  574   0.134   6.748   7.132
   22MYC    H72  575   0.239   6.776   7.143
   22MYC    H73  576   0.124   6.639   7.131
   22MYC    C40  577   0.068   6.793   7.001
   22MYC    H74  578  -0.035   6.753   7.002
   22MYC    H75  579   0.060   6.902   6.987
   22MYC    C41  580   0.142   6.727   6.884
   22MYC    H76  581   0.236   6.782   6.880
   22MYC    H77  582   0.180   6.625   6.901
   22MYC    C42  583   0.060   6.726   6.754
   22MYC    H78  584  -0.023   6.656   6.763
   22MYC    H79  585   0.015   6.823   6.732
   22MYC    C43  586   0.148   6.677   6.637
   22MYC    H80  587   0.093   6.670   6.542
   22MYC    H81  588   0.191   6.578   6.656
   22MYC    H82  589   0.234   6.740   6.614
   23MYC   5H15  590   1.151  -0.073   6.587
   23MYC    C80  591   1.160  -0.015   6.680
   23MYC   3H15  592   1.261  -0.029   6.719
   23MYC   4H15  593   1.146   0.092   6.660
   23MYC    C79  594   1.056  -0.059   6.784
   23MYC   1H15  595   1.076  -0.161   6.818
   23MYC   2H15  596   0.952  -0.045   6.750
   23MYC    C78  597   1.079   0.019   6.914
   23MYC   9H14  598   1.070   0.128   6.903
   23MYC   0H15  599   1.181   0.004   6.953
   23MYC    C77  600   0.981  -0.014   7.028
   23MYC   7H14  601   1.000  -0.119   7.053
   23MYC   8H14  602   0.877   0.014   7.010
   23MYC    C76  603   1.013   0.067   7.155
   23MYC   5H14  604   0.992   0.174   7.144
   23MYC   6H14  605   1.121   0.051   7.163
   23MYC    C75  606   0.945   0.008   7.280
   23MYC   3H14  607   0.977  -0.095   7.304
   23MYC   4H14  608   0.838  -0.007   7.262
   23MYC    C74  609   0.983   0.082   7.410
   23MYC   1H14  610   0.952   0.187   7.408
   23MYC   2H14  611   1.090   0.064   7.423
   23MYC    C73  612   0.905   0.018   7.526
   23MYC   9H13  613   0.927  -0.089   7.527
   23MYC   0H14  614   0.796   0.021   7.516
   23MYC    C72  615   0.954   0.079   7.658
   23MYC   7H13  616   0.895   0.171   7.673
   23MYC   8H13  617   1.061   0.101   7.645
   23MYC    C71  618   0.915  -0.015   7.773
   23MYC   5H13  619   0.978  -0.105   7.767
   23MYC   6H13  620   0.807  -0.028   7.758
   23MYC    C70  621   0.939   0.044   7.913
   23MYC   3H13  622   0.868   0.126   7.931
   23MYC   4H13  623   1.036   0.095   7.913
   23MYC    C69  624   0.945  -0.059   8.026
   23MYC   1H13  625   1.026  -0.133   8.019
   23MYC   2H13  626   0.859  -0.125   8.010
   23MYC    C68  627   0.948   0.006   8.165
   23MYC   9H12  628   0.866   0.078   8.176
   23MYC   0H13  629   1.037   0.070   8.172
   23MYC    C67  630   0.947  -0.102   8.275
   23MYC   7H12  631   1.031  -0.172   8.261
   23MYC   8H12  632   0.855  -0.161   8.268
   23MYC    C66  633   0.961  -0.036   8.413
   23MYC   5H12  634   0.877   0.032   8.432
   23MYC   6H12  635   1.049   0.027   8.427
   23MYC    C65  636   0.953  -0.137   8.529
   23MYC   3H12  637   1.039  -0.201   8.504
   23MYC   4H12  638   0.857  -0.187   8.511
   23MYC    C64  639   0.964  -0.070   8.666
   23MYC   1H12  640   0.896   0.016   8.675
   23MYC   2H12  641   1.062  -0.022   8.671
   23MYC    C63  642   0.956  -0.175   8.778
   23MYC   9H11  643   1.023  -0.259   8.759
   23MYC   0H12  644   0.854  -0.216   8.774
   23MYC    C62  645   0.985  -0.114   8.916
   23MYC   7H11  646   1.010  -0.008   8.904
   23MYC   8H11  647   1.081  -0.152   8.953
   23MYC    C61  648   0.878  -0.127   9.025
   23MYC   5H11  649   0.855  -0.232   9.050
   23MYC   6H11  650   0.794  -0.081   8.973
   23MYC    C60  651   0.917  -0.047   9.148
   23MYC   4H11  652   0.890   0.058   9.141
   23MYC    C58  653   0.914  -0.117   9.282
   23MYC   1H11  654   0.905  -0.225   9.284
   23MYC    C59  655   1.046  -0.073   9.222
   23MYC   2H11  656   1.092   0.016   9.264
   23MYC   3H11  657   1.112  -0.156   9.199
   23MYC    C57  658   0.847  -0.048   9.399
   23MYC   9H10  659   0.739  -0.068   9.402
   23MYC   0H11  660   0.853   0.060   9.381
   23MYC    C56  661   0.909  -0.087   9.534
   23MYC   7H10  662   1.015  -0.056   9.539
   23MYC   8H10  663   0.919  -0.195   9.550
   23MYC    C55  664   0.824  -0.039   9.652
   23MYC   5H10  665   0.716  -0.047   9.633
   23MYC   6H10  666   0.840   0.069   9.662
   23MYC    C54  667   0.855  -0.114   9.782
   23MYC   3H10  668   0.964  -0.108   9.797
   23MYC   4H10  669   0.826  -0.220   9.787
   23MYC    C53  670   0.788  -0.041   9.899
   23MYC   1H10  671   0.680  -0.043   9.879
   23MYC   2H10  672   0.815   0.065   9.911
   23MYC    C52  673   0.828  -0.113  10.029
   23MYC    H99  674   0.917  -0.175  10.011
   23MYC   0H10  675   0.754  -0.190  10.055
   23MYC    C51  676   0.844  -0.023  10.152
   23MYC    H97  677   0.756   0.039  10.173
   23MYC    H98  678   0.921   0.052  10.129
   23MYC    C50  679   0.878  -0.098  10.282
   23MYC    H95  680   0.983  -0.129  10.286
   23MYC    H96  681   0.810  -0.181  10.305
   23MYC    C49  682   0.858  -0.002  10.400
   23MYC    H93  683   0.755   0.032  10.420
   23MYC    H94  684   0.924   0.084  10.384
   23MYC    C48  685   0.898  -0.064  10.535
   23MYC    H91  686   0.997  -0.111  10.533
   23MYC    H92  687   0.838  -0.152  10.559
   23MYC    C47  688   0.890   0.037  10.651
   23MYC    H89  689   0.785   0.064  10.667
   23MYC    H90  690   0.935   0.132  10.618
   23MYC    C46  691   0.944  -0.017  10.784
   23MYC    H87  692   1.029  -0.083  10.761
   23MYC    H88  693   0.863  -0.075  10.830
   23MYC    C45  694   0.982   0.092  10.885
   23MYC    H85  695   0.909   0.081  10.966
   23MYC    H86  696   0.973   0.192  10.841
   23MYC    C44  697   1.127   0.070  10.933
   23MYC    H83  698   1.160   0.152  10.997
   23MYC    H84  699   1.187   0.064  10.842
   23MYC    C18  700   1.156  -0.048  11.025
   23MYC    H31  701   1.140  -0.143  10.975
   23MYC    C17  702   1.274  -0.034  11.119
   23MYC    H30  703   1.317   0.066  11.124
   23MYC    C19  704   1.134  -0.040  11.174
   23MYC    H32  705   1.098   0.054  11.216
   23MYC    H33  706   1.098  -0.131  11.221
   23MYC    C16  707   1.372  -0.149  11.136
   23MYC    H28  708   1.327  -0.249  11.132
   23MYC    H29  709   1.411  -0.133  11.237
   23MYC    C15  710   1.486  -0.140  11.033
   23MYC    H26  711   1.575  -0.185  11.077
   23MYC    H27  712   1.505  -0.034  11.014
   23MYC    C14  713   1.444  -0.202  10.898
   23MYC    H24  714   1.336  -0.219  10.897
   23MYC    H25  715   1.486  -0.303  10.890
   23MYC    C13  716   1.504  -0.124  10.780
   23MYC    H22  717   1.611  -0.118  10.804
   23MYC    H23  718   1.462  -0.023  10.778
   23MYC    C12  719   1.482  -0.197  10.646
   23MYC    H20  720   1.375  -0.217  10.633
   23MYC    H21  721   1.537  -0.292  10.650
   23MYC    C11  722   1.531  -0.117  10.524
   23MYC    H18  723   1.580  -0.187  10.455
   23MYC    H19  724   1.606  -0.047  10.562
   23MYC    C10  725   1.420  -0.036  10.455
   23MYC    H16  726   1.461   0.045  10.393
   23MYC    H17  727   1.354   0.004  10.533
   23MYC     C9  728   1.335  -0.123  10.361
   23MYC    H14  729   1.238  -0.073  10.349
   23MYC    H15  730   1.303  -0.218  10.406
   23MYC     C8  731   1.401  -0.146  10.224
   23MYC    H12  732   1.493  -0.204  10.241
   23MYC    H13  733   1.434  -0.046  10.192
   23MYC     C7  734   1.301  -0.198  10.120
   23MYC    H10  735   1.216  -0.129  10.121
   23MYC    H11  736   1.266  -0.293  10.162
   23MYC     C6  737   1.368  -0.214   9.982
   23MYC     H8  738   1.474  -0.238   9.996
   23MYC     H9  739   1.364  -0.115   9.936
   23MYC     C5  740   1.294  -0.315   9.892
   23MYC     H6  741   1.189  -0.286   9.882
   23MYC     H7  742   1.298  -0.412   9.943
   23MYC     C4  743   1.359  -0.329   9.754
   23MYC     H4  744   1.326  -0.424   9.709
   23MYC     H5  745   1.467  -0.343   9.766
   23MYC     C2  746   1.323  -0.223   9.648
   23MYC     H2  747   1.272  -0.280   9.569
   23MYC     O3  748   1.234  -0.121   9.692
   23MYC     H3  749   1.284  -0.050   9.734
   23MYC     C1  750   1.444  -0.155   9.580
   23MYC     H1  751   1.519  -0.234   9.573
   23MYC    C81  752   1.504  -0.041   9.663
   23MYC    O82  753   1.476   0.076   9.646
   23MYC    O83  754   1.614  -0.081   9.730
   23MYC   6H15  755   1.656   0.004   9.753
   23MYC    C20  756   1.414  -0.098   9.440
   23MYC    H34  757   1.330  -0.029   9.448
   23MYC    H35  758   1.502  -0.041   9.407
   23MYC    C21  759   1.391  -0.209   9.336
   23MYC    H36  760   1.464  -0.291   9.339
   23MYC    H37  761   1.290  -0.251   9.345
   23MYC    C22  762   1.390  -0.148   9.195
   23MYC    H38  763   1.330  -0.056   9.192
   23MYC    H39  764   1.487  -0.101   9.177
   23MYC    C23  765   1.363  -0.240   9.075
   23MYC    H40  766   1.417  -0.334   9.090
   23MYC    H41  767   1.256  -0.263   9.071
   23MYC    C24  768   1.424  -0.162   8.957
   23MYC    H42  769   1.402  -0.054   8.950
   23MYC    H43  770   1.533  -0.171   8.959
   23MYC    C25  771   1.377  -0.223   8.824
   23MYC    H44  772   1.398  -0.331   8.826
   23MYC    H45  773   1.268  -0.209   8.813
   23MYC    C26  774   1.448  -0.149   8.710
   23MYC    H46  775   1.444  -0.039   8.721
   23MYC    H47  776   1.554  -0.178   8.711
   23MYC    C27  777   1.377  -0.160   8.574
   23MYC    H48  778   1.388  -0.264   8.541
   23MYC    H49  779   1.269  -0.148   8.589
   23MYC    C28  780   1.432  -0.070   8.462
   23MYC    H50  781   1.452   0.029   8.504
   23MYC    H51  782   1.531  -0.106   8.430
   23MYC    C29  783   1.331  -0.059   8.346
   23MYC    H52  784   1.280  -0.150   8.314
   23MYC    H53  785   1.253   0.012   8.377
   23MYC    C30  786   1.396  -0.009   8.216
   23MYC    H54  787   1.441   0.088   8.239
   23MYC    H55  788   1.484  -0.071   8.196
   23MYC    C31  789   1.308  -0.008   8.089
   23MYC    H56  790   1.247  -0.099   8.080
   23MYC    H57  791   1.238   0.075   8.099
   23MYC    C32  792   1.389   0.017   7.960
   23MYC    H58  793   1.461   0.098   7.976
   23MYC    H59  794   1.457  -0.069   7.957
   23MYC    C33  795   1.316   0.041   7.827
   23MYC    H60  796   1.242  -0.040   7.817
   23MYC    H61  797   1.257   0.133   7.825
   23MYC    C34  798   1.418   0.039   7.711
   23MYC    H62  799   1.494   0.115   7.732
   23MYC    H63  800   1.466  -0.058   7.722
   23MYC    C35  801   1.359   0.067   7.571
   23MYC    H64  802   1.269   0.006   7.557
   23MYC    H65  803   1.329   0.171   7.555
   23MYC    C36  804   1.462   0.031   7.463
   23MYC    H66  805   1.564   0.055   7.497
   23MYC    H67  806   1.454  -0.077   7.445
   23MYC    C37  807   1.443   0.113   7.335
   23MYC    H68  808   1.338   0.128   7.307
   23MYC    H69  809   1.489   0.211   7.348
   23MYC    C38  810   1.510   0.051   7.211
   23MYC    H70  811   1.616   0.034   7.231
   23MYC    H71  812   1.455  -0.042   7.194
   23MYC    C39  813   1.488   0.146   7.092
   23MYC    H72  814   1.379   0.149   7.077
   23MYC    H73  815   1.510   0.252   7.111
   23MYC    C40  816   1.551   0.102   6.958
   23MYC    H74  817   1.658   0.123   6.964
   23MYC    H75  818   1.549  -0.006   6.944
   23MYC    C41  819   1.499   0.190   6.843
   23MYC    H76  820   1.394   0.220   6.853
   23MYC    H77  821   1.558   0.283   6.846
   23MYC    C42  822   1.521   0.113   6.712
   23MYC    H78  823   1.629   0.101   6.697
   23MYC    H79  824   1.472   0.015   6.713
   23MYC    C43  825   1.466   0.183   6.586
   23MYC    H80  826   1.421   0.105   6.524
   23MYC    H81  827   1.539   0.241   6.528
   23MYC    H82  828   1.383   0.251   6.609
   24MYC   5H15  829   1.730   6.034   6.678
   24MYC    C80  830   1.728   6.037   6.788
   24MYC   3H15  831   1.673   6.130   6.808
   24MYC   4H15  832   1.667   5.951   6.816
   24MYC    C79  833   1.872   6.039   6.843
   24MYC   1H15  834   1.938   6.082   6.767
   24MYC   2H15  835   1.902   5.936   6.864
   24MYC    C78  836   1.894   6.120   6.971
   24MYC   9H14  837   1.882   6.227   6.947
   24MYC   0H15  838   1.996   6.105   7.009
   24MYC    C77  839   1.797   6.094   7.088
   24MYC   7H14  840   1.784   5.986   7.105
   24MYC   8H14  841   1.696   6.123   7.055
   24MYC    C76  842   1.846   6.161   7.218
   24MYC   5H14  843   1.832   6.269   7.206
   24MYC   6H14  844   1.951   6.134   7.234
   24MYC    C75  845   1.768   6.102   7.337
   24MYC   3H14  846   1.772   5.994   7.316
   24MYC   4H14  847   1.668   6.148   7.337
   24MYC    C74  848   1.848   6.134   7.463
   24MYC   1H14  849   1.873   6.241   7.472
   24MYC   2H14  850   1.944   6.080   7.461
   24MYC    C73  851   1.765   6.092   7.586
   24MYC   9H13  852   1.769   5.983   7.597
   24MYC   0H14  853   1.659   6.119   7.579
   24MYC    C72  854   1.829   6.165   7.705
   24MYC   7H13  855   1.833   6.273   7.686
   24MYC   8H13  856   1.930   6.127   7.723
   24MYC    C71  857   1.754   6.144   7.838
   24MYC   5H13  858   1.726   6.040   7.860
   24MYC   6H13  859   1.663   6.205   7.831
   24MYC    C70  860   1.842   6.196   7.953
   24MYC   3H13  861   1.795   6.289   7.988
   24MYC   4H13  862   1.942   6.231   7.927
   24MYC    C69  863   1.850   6.109   8.080
   24MYC   1H13  864   1.902   6.015   8.056
   24MYC   2H13  865   1.749   6.082   8.113
   24MYC    C68  866   1.930   6.182   8.190
   24MYC   9H12  867   1.892   6.284   8.198
   24MYC   0H13  868   2.038   6.180   8.168
   24MYC    C67  869   1.907   6.107   8.322
   24MYC   7H12  870   1.960   6.012   8.314
   24MYC   8H12  871   1.803   6.089   8.353
   24MYC    C66  872   1.958   6.185   8.444
   24MYC   5H12  873   1.912   6.283   8.460
   24MYC   6H12  874   2.066   6.192   8.423
   24MYC    C65  875   1.940   6.097   8.569
   24MYC   3H12  876   2.032   6.042   8.590
   24MYC   4H12  877   1.869   6.015   8.551
   24MYC    C64  878   1.895   6.171   8.696
   24MYC   1H12  879   1.820   6.246   8.671
   24MYC   2H12  880   1.977   6.231   8.737
   24MYC    C63  881   1.851   6.071   8.804
   24MYC   9H11  882   1.917   5.985   8.816
   24MYC   0H12  883   1.750   6.030   8.788
   24MYC    C62  884   1.844   6.137   8.943
   24MYC   7H11  885   1.759   6.206   8.949
   24MYC   8H11  886   1.934   6.198   8.961
   24MYC    C61  887   1.822   6.042   9.062
   24MYC   5H11  888   1.914   5.982   9.063
   24MYC   6H11  889   1.741   5.972   9.039
   24MYC    C60  890   1.797   6.104   9.198
   24MYC   4H11  891   1.693   6.132   9.214
   24MYC    C58  892   1.874   6.071   9.324
   24MYC   1H11  893   1.961   6.007   9.317
   24MYC    C59  894   1.900   6.201   9.252
   24MYC   2H11  895   1.859   6.292   9.296
   24MYC   3H11  896   1.998   6.210   9.206
   24MYC    C57  897   1.800   6.068   9.457
   24MYC   9H10  898   1.745   5.975   9.473
   24MYC   0H11  899   1.718   6.139   9.445
   24MYC    C56  900   1.892   6.088   9.579
   24MYC   7H10  901   1.937   6.188   9.572
   24MYC   8H10  902   1.979   6.021   9.571
   24MYC    C55  903   1.827   6.063   9.716
   24MYC   5H10  904   1.814   5.955   9.729
   24MYC   6H10  905   1.723   6.099   9.716
   24MYC    C54  906   1.914   6.124   9.826
   24MYC   3H10  907   1.927   6.229   9.796
   24MYC   4H10  908   2.012   6.075   9.827
   24MYC    C53  909   1.853   6.101   9.965
   24MYC   1H10  910   1.835   5.996   9.989
   24MYC   2H10  911   1.760   6.160   9.963
   24MYC    C52  912   1.940   6.171  10.072
   24MYC    H99  913   1.942   6.279  10.053
   24MYC   0H10  914   2.044   6.137  10.072
   24MYC    C51  915   1.893   6.144  10.216
   24MYC    H97  916   1.889   6.035  10.226
   24MYC    H98  917   1.787   6.169  10.224
   24MYC    C50  918   1.966   6.218  10.329
   24MYC    H95  919   1.931   6.321  10.315
   24MYC    H96  920   2.075   6.220  10.319
   24MYC    C49  921   1.921   6.169  10.468
   24MYC    H93  922   1.980   6.079  10.485
   24MYC    H94  923   1.816   6.139  10.480
   24MYC    C48  924   1.951   6.272  10.579
   24MYC    H91  925   1.905   6.367  10.551
   24MYC    H92  926   2.057   6.297  10.587
   24MYC    C47  927   1.904   6.229  10.719
   24MYC    H89  928   1.969   6.144  10.740
   24MYC    H90  929   1.801   6.191  10.716
   24MYC    C46  930   1.918   6.336  10.828
   24MYC    H87  931   1.843   6.413  10.805
   24MYC    H88  932   2.019   6.380  10.824
   24MYC    C45  933   1.902   6.282  10.971
   24MYC    H85  934   1.986   6.225  11.012
   24MYC    H86  935   1.814   6.217  10.959
   24MYC    C44  936   1.866   6.397  11.066
   24MYC    H83  937   1.815   6.352  11.152
   24MYC    H84  938   1.803   6.473  11.018
   24MYC    C18  939   1.994   6.461  11.119
   24MYC    H31  940   2.062   6.393  11.171
   24MYC    C17  941   2.045   6.581  11.043
   24MYC    H30  942   1.980   6.631  10.973
   24MYC    C19  943   1.999   6.596  11.186
   24MYC    H32  944   1.898   6.629  11.211
   24MYC    H33  945   2.071   6.600  11.268
   24MYC    C16  946   2.195   6.589  11.021
   24MYC    H28  947   2.235   6.492  10.992
   24MYC    H29  948   2.247   6.618  11.114
   24MYC    C15  949   2.224   6.691  10.909
   24MYC    H26  950   2.332   6.709  10.908
   24MYC    H27  951   2.181   6.790  10.930
   24MYC    C14  952   2.178   6.655  10.767
   24MYC    H24  953   2.196   6.752  10.720
   24MYC    H25  954   2.074   6.621  10.761
   24MYC    C13  955   2.249   6.542  10.690
   24MYC    H22  956   2.198   6.448  10.713
   24MYC    H23  957   2.356   6.541  10.714
   24MYC    C12  958   2.241   6.579  10.541
   24MYC    H20  959   2.245   6.688  10.527
   24MYC    H21  960   2.143   6.557  10.497
   24MYC    C11  961   2.343   6.512  10.447
   24MYC    H18  962   2.303   6.418  10.407
   24MYC    H19  963   2.422   6.478  10.516
   24MYC    C10  964   2.397   6.608  10.339
   24MYC    H16  965   2.492   6.573  10.298
   24MYC    H17  966   2.434   6.697  10.392
   24MYC     C9  967   2.297   6.653  10.232
   24MYC    H14  968   2.325   6.754  10.199
   24MYC    H15  969   2.196   6.659  10.274
   24MYC     C8  970   2.297   6.563  10.107
   24MYC    H12  971   2.324   6.460  10.131
   24MYC    H13  972   2.391   6.590  10.057
   24MYC     C7  973   2.175   6.579  10.015
   24MYC    H10  974   2.157   6.686   9.997
   24MYC    H11  975   2.087   6.535  10.064
   24MYC     C6  976   2.206   6.508   9.883
   24MYC     H8  977   2.221   6.402   9.906
   24MYC     H9  978   2.295   6.556   9.841
   24MYC     C5  979   2.089   6.521   9.784
   24MYC     H6  980   2.063   6.626   9.769
   24MYC     H7  981   2.004   6.477   9.838
   24MYC     C4  982   2.106   6.441   9.654
   24MYC     H4  983   2.002   6.419   9.624
   24MYC     H5  984   2.154   6.343   9.670
   24MYC     C2  985   2.176   6.497   9.529
   24MYC     H2  986   2.114   6.466   9.443
   24MYC     O3  987   2.179   6.639   9.532
   24MYC     H3  988   2.259   6.670   9.577
   24MYC     C1  989   2.316   6.445   9.494
   24MYC     H1  990   2.312   6.337   9.475
   24MYC    C81  991   2.417   6.464   9.606
   24MYC    O82  992   2.469   6.571   9.630
   24MYC    O83  993   2.481   6.347   9.628
   24MYC   6H15  994   2.575   6.362   9.651
   24MYC    C20  995   2.361   6.502   9.358
   24MYC    H34  996   2.371   6.612   9.363
   24MYC    H35  997   2.461   6.460   9.345
   24MYC    C21  998   2.284   6.455   9.234
   24MYC    H36  999   2.285   6.346   9.222
   24MYC    H37 1000   2.180   6.489   9.232
   24MYC    C22 1001   2.356   6.501   9.106
   24MYC    H38 1002   2.369   6.610   9.099
   24MYC    H39 1003   2.455   6.456   9.097
   24MYC    C23 1004   2.284   6.453   8.978
   24MYC    H40 1005   2.315   6.350   8.959
   24MYC    H41 1006   2.175   6.455   8.987
   24MYC    C24 1007   2.332   6.518   8.847
   24MYC    H42 1008   2.282   6.614   8.829
   24MYC    H43 1009   2.437   6.541   8.866
   24MYC    C25 1010   2.320   6.422   8.727
   24MYC    H44 1011   2.405   6.352   8.724
   24MYC    H45 1012   2.224   6.369   8.729
   24MYC    C26 1013   2.321   6.496   8.592
   24MYC    H46 1014   2.239   6.569   8.587
   24MYC    H47 1015   2.418   6.545   8.589
   24MYC    C27 1016   2.317   6.400   8.472
   24MYC    H48 1017   2.410   6.342   8.467
   24MYC    H49 1018   2.234   6.331   8.489
   24MYC    C28 1019   2.308   6.477   8.339
   24MYC    H50 1020   2.233   6.556   8.349
   24MYC    H51 1021   2.404   6.528   8.328
   24MYC    C29 1022   2.279   6.382   8.221
   24MYC    H52 1023   2.364   6.319   8.193
   24MYC    H53 1024   2.189   6.322   8.235
   24MYC    C30 1025   2.251   6.469   8.097
   24MYC    H54 1026   2.157   6.522   8.115
   24MYC    H55 1027   2.330   6.545   8.093
   24MYC    C31 1028   2.239   6.398   7.961
   24MYC    H56 1029   2.315   6.325   7.930
   24MYC    H57 1030   2.158   6.325   7.972
   24MYC    C32 1031   2.201   6.501   7.853
   24MYC    H58 1032   2.109   6.553   7.883
   24MYC    H59 1033   2.278   6.577   7.836
   24MYC    C33 1034   2.182   6.441   7.713
   24MYC    H60 1035   2.267   6.373   7.699
   24MYC    H61 1036   2.098   6.370   7.715
   24MYC    C34 1037   2.178   6.542   7.598
   24MYC    H62 1038   2.090   6.608   7.600
   24MYC    H63 1039   2.270   6.603   7.594
   24MYC    C35 1040   2.177   6.469   7.462
   24MYC    H64 1041   2.260   6.399   7.452
   24MYC    H65 1042   2.086   6.408   7.460
   24MYC    C36 1043   2.157   6.561   7.340
   24MYC    H66 1044   2.086   6.644   7.353
   24MYC    H67 1045   2.255   6.606   7.320
   24MYC    C37 1046   2.110   6.487   7.214
   24MYC    H68 1047   2.185   6.408   7.201
   24MYC    H69 1048   2.020   6.434   7.247
   24MYC    C38 1049   2.094   6.575   7.089
   24MYC    H70 1050   2.040   6.668   7.109
   24MYC    H71 1051   2.196   6.596   7.053
   24MYC    C39 1052   2.021   6.498   6.978
   24MYC    H72 1053   2.078   6.406   6.960
   24MYC    H73 1054   1.924   6.460   7.012
   24MYC    C40 1055   2.021   6.579   6.847
   24MYC    H74 1056   1.963   6.672   6.856
   24MYC    H75 1057   2.126   6.606   6.829
   24MYC    C41 1058   1.959   6.499   6.730
   24MYC    H76 1059   2.028   6.434   6.674
   24MYC    H77 1060   1.882   6.434   6.771
   24MYC    C42 1061   1.904   6.596   6.624
   24MYC    H78 1062   1.826   6.660   6.666
   24MYC    H79 1063   1.988   6.658   6.589
   24MYC    C43 1064   1.866   6.517   6.497
   24MYC    H80 1065   1.839   6.588   6.418
   24MYC    H81 1066   1.771   6.472   6.528
   24MYC    H82 1067   1.937   6.442   6.461
   25MYC   5H15 1068   2.932   6.149   6.734
   25MYC    C80 1069   2.884   6.200   6.818
   25MYC   3H15 1070   2.956   6.279   6.843
   25MYC   4H15 1071   2.790   6.245   6.784
   25MYC    C79 1072   2.855   6.112   6.941
   25MYC   1H15 1073   2.941   6.117   7.009
   25MYC   2H15 1074   2.844   6.011   6.901
   25MYC    C78 1075   2.734   6.149   7.028
   25MYC   9H14 1076   2.643   6.110   6.981
   25MYC   0H15 1077   2.733   6.259   7.029
   25MYC    C77 1078   2.747   6.094   7.171
   25MYC   7H14 1079   2.836   6.134   7.222
   25MYC   8H14 1080   2.763   5.987   7.152
   25MYC    C76 1081   2.626   6.101   7.266
   25MYC   5H14 1082   2.545   6.037   7.229
   25MYC   6H14 1083   2.585   6.203   7.263
   25MYC    C75 1084   2.649   6.049   7.409
   25MYC   3H14 1085   2.720   6.114   7.462
   25MYC   4H14 1086   2.690   5.947   7.412
   25MYC    C74 1087   2.516   6.049   7.485
   25MYC   1H14 1088   2.434   5.998   7.432
   25MYC   2H14 1089   2.482   6.154   7.485
   25MYC    C73 1090   2.516   6.000   7.630
   25MYC   9H13 1091   2.595   6.044   7.692
   25MYC   0H14 1092   2.538   5.893   7.621
   25MYC    C72 1093   2.376   6.011   7.693
   25MYC   7H13 1094   2.306   5.975   7.616
   25MYC   8H13 1095   2.348   6.116   7.708
   25MYC    C71 1096   2.358   5.928   7.821
   25MYC   5H13 1097   2.430   5.845   7.826
   25MYC   6H13 1098   2.260   5.879   7.811
   25MYC    C70 1099   2.357   6.009   7.951
   25MYC   3H13 1100   2.267   6.072   7.958
   25MYC   4H13 1101   2.443   6.078   7.958
   25MYC    C69 1102   2.350   5.912   8.070
   25MYC   1H13 1103   2.452   5.870   8.070
   25MYC   2H13 1104   2.274   5.836   8.047
   25MYC    C68 1105   2.324   5.992   8.198
   25MYC   9H12 1106   2.218   6.013   8.220
   25MYC   0H13 1107   2.362   6.095   8.192
   25MYC    C67 1108   2.375   5.923   8.325
   25MYC   7H12 1109   2.473   5.876   8.307
   25MYC   8H12 1110   2.316   5.835   8.352
   25MYC    C66 1111   2.389   6.018   8.446
   25MYC   5H12 1112   2.294   6.067   8.469
   25MYC   6H12 1113   2.447   6.102   8.407
   25MYC    C65 1114   2.457   5.964   8.573
   25MYC   3H12 1115   2.565   5.950   8.560
   25MYC   4H12 1116   2.402   5.876   8.609
   25MYC    C64 1117   2.439   6.064   8.688
   25MYC   1H12 1118   2.335   6.098   8.694
   25MYC   2H12 1119   2.501   6.152   8.668
   25MYC    C63 1120   2.476   6.009   8.827
   25MYC   9H11 1121   2.576   5.966   8.815
   25MYC   0H12 1122   2.407   5.924   8.839
   25MYC    C62 1123   2.466   6.105   8.946
   25MYC   7H11 1124   2.363   6.143   8.942
   25MYC   8H11 1125   2.540   6.186   8.937
   25MYC    C61 1126   2.501   6.022   9.071
   25MYC   5H11 1127   2.601   5.979   9.060
   25MYC   6H11 1128   2.432   5.937   9.082
   25MYC    C60 1129   2.495   6.099   9.202
   25MYC   4H11 1130   2.398   6.143   9.225
   25MYC    C58 1131   2.574   6.044   9.318
   25MYC   1H11 1132   2.644   5.962   9.302
   25MYC    C59 1133   2.611   6.177   9.258
   25MYC   2H11 1134   2.591   6.264   9.321
   25MYC   3H11 1135   2.705   6.169   9.204
   25MYC    C57 1136   2.500   6.026   9.449
   25MYC   9H10 1137   2.464   5.922   9.445
   25MYC   0H11 1138   2.411   6.088   9.463
   25MYC    C56 1139   2.591   6.044   9.572
   25MYC   7H10 1140   2.655   6.132   9.558
   25MYC   8H10 1141   2.667   5.965   9.571
   25MYC    C55 1142   2.506   6.034   9.699
   25MYC   5H10 1143   2.455   5.938   9.711
   25MYC   6H10 1144   2.426   6.110   9.693
   25MYC    C54 1145   2.582   6.063   9.829
   25MYC   3H10 1146   2.644   6.153   9.814
   25MYC   4H10 1147   2.653   5.982   9.851
   25MYC    C53 1148   2.482   6.090   9.942
   25MYC   1H10 1149   2.406   6.010   9.943
   25MYC   2H10 1150   2.426   6.184   9.932
   25MYC    C52 1151   2.544   6.080  10.082
   25MYC    H99 1152   2.594   6.175  10.107
   25MYC   0H10 1153   2.601   5.987  10.094
   25MYC    C51 1154   2.443   6.062  10.196
   25MYC    H97 1155   2.389   5.966  10.197
   25MYC    H98 1156   2.365   6.138  10.186
   25MYC    C50 1157   2.503   6.071  10.338
   25MYC    H95 1158   2.572   6.157  10.339
   25MYC    H96 1159   2.561   5.980  10.357
   25MYC    C49 1160   2.398   6.090  10.448
   25MYC    H93 1161   2.334   6.002  10.463
   25MYC    H94 1162   2.333   6.172  10.415
   25MYC    C48 1163   2.460   6.128  10.583
   25MYC    H91 1164   2.520   6.220  10.575
   25MYC    H92 1165   2.515   6.036  10.607
   25MYC    C47 1166   2.355   6.153  10.692
   25MYC    H89 1167   2.290   6.066  10.702
   25MYC    H90 1168   2.300   6.236  10.646
   25MYC    C46 1169   2.412   6.194  10.829
   25MYC    H87 1170   2.450   6.297  10.831
   25MYC    H88 1171   2.493   6.126  10.857
   25MYC    C45 1172   2.295   6.190  10.929
   25MYC    H85 1173   2.246   6.092  10.922
   25MYC    H86 1174   2.209   6.253  10.903
   25MYC    C44 1175   2.331   6.225  11.074
   25MYC    H83 1176   2.233   6.228  11.125
   25MYC    H84 1177   2.367   6.328  11.069
   25MYC    C18 1178   2.434   6.140  11.147
   25MYC    H31 1179   2.486   6.064  11.090
   25MYC    C17 1180   2.520   6.195  11.258
   25MYC    H30 1181   2.503   6.298  11.288
   25MYC    C19 1182   2.408   6.099  11.290
   25MYC    H32 1183   2.324   6.144  11.342
   25MYC    H33 1184   2.436   5.997  11.318
   25MYC    C16 1185   2.662   6.139  11.259
   25MYC    H28 1186   2.653   6.031  11.238
   25MYC    H29 1187   2.696   6.143  11.363
   25MYC    C15 1188   2.767   6.216  11.178
   25MYC    H26 1189   2.873   6.204  11.203
   25MYC    H27 1190   2.747   6.320  11.207
   25MYC    C14 1191   2.742   6.219  11.026
   25MYC    H24 1192   2.641   6.249  10.997
   25MYC    H25 1193   2.773   6.126  10.977
   25MYC    C13 1194   2.823   6.330  10.956
   25MYC    H22 1195   2.930   6.308  10.961
   25MYC    H23 1196   2.804   6.430  10.996
   25MYC    C12 1197   2.783   6.338  10.808
   25MYC    H20 1198   2.674   6.349  10.803
   25MYC    H21 1199   2.797   6.243  10.755
   25MYC    C11 1200   2.845   6.456  10.732
   25MYC    H18 1201   2.953   6.442  10.717
   25MYC    H19 1202   2.847   6.544  10.798
   25MYC    C10 1203   2.786   6.491  10.594
   25MYC    H16 1204   2.820   6.591  10.565
   25MYC    H17 1205   2.677   6.492  10.609
   25MYC     C9 1206   2.821   6.397  10.478
   25MYC    H14 1207   2.767   6.302  10.488
   25MYC    H15 1208   2.928   6.373  10.488
   25MYC     C8 1209   2.792   6.456  10.339
   25MYC    H12 1210   2.858   6.542  10.320
   25MYC    H13 1211   2.689   6.493  10.332
   25MYC     C7 1212   2.828   6.350  10.233
   25MYC    H10 1213   2.756   6.268  10.237
   25MYC    H11 1214   2.927   6.304  10.248
   25MYC     C6 1215   2.826   6.408  10.091
   25MYC     H8 1216   2.855   6.514  10.081
   25MYC     H9 1217   2.719   6.405  10.069
   25MYC     C5 1218   2.893   6.312   9.992
   25MYC     H6 1219   2.816   6.245   9.951
   25MYC     H7 1220   2.976   6.256  10.039
   25MYC     C4 1221   2.957   6.373   9.866
   25MYC     H4 1222   3.034   6.302   9.832
   25MYC     H5 1223   3.000   6.469   9.899
   25MYC     C2 1224   2.866   6.388   9.743
   25MYC     H2 1225   2.846   6.285   9.711
   25MYC     O3 1226   2.741   6.443   9.784
   25MYC     H3 1227   2.746   6.435   9.881
   25MYC     C1 1228   2.921   6.475   9.629
   25MYC     H1 1229   3.026   6.447   9.614
   25MYC    C81 1230   2.925   6.622   9.668
   25MYC    O82 1231   2.836   6.703   9.652
   25MYC    O83 1232   3.039   6.659   9.730
   25MYC   6H15 1233   3.048   6.755   9.713
   25MYC    C20 1234   2.847   6.443   9.497
   25MYC    H34 1235   2.831   6.335   9.490
   25MYC    H35 1236   2.746   6.485   9.504
   25MYC    C21 1237   2.919   6.499   9.373
   25MYC    H36 1238   2.912   6.608   9.379
   25MYC    H37 1239   3.024   6.468   9.361
   25MYC    C22 1240   2.854   6.449   9.243
   25MYC    H38 1241   2.857   6.339   9.243
   25MYC    H39 1242   2.747   6.476   9.244
   25MYC    C23 1243   2.925   6.517   9.126
   25MYC    H40 1244   2.936   6.625   9.145
   25MYC    H41 1245   3.023   6.469   9.116
   25MYC    C24 1246   2.848   6.500   8.994
   25MYC    H42 1247   2.810   6.399   8.974
   25MYC    H43 1248   2.752   6.553   8.997
   25MYC    C25 1249   2.926   6.531   8.865
   25MYC    H44 1250   2.988   6.617   8.893
   25MYC    H45 1251   2.991   6.448   8.836
   25MYC    C26 1252   2.844   6.575   8.743
   25MYC    H46 1253   2.756   6.512   8.732
   25MYC    H47 1254   2.805   6.676   8.761
   25MYC    C27 1255   2.938   6.580   8.621
   25MYC    H48 1256   3.027   6.642   8.635
   25MYC    H49 1257   2.970   6.477   8.602
   25MYC    C28 1258   2.877   6.642   8.493
   25MYC    H50 1259   2.780   6.595   8.472
   25MYC    H51 1260   2.855   6.748   8.507
   25MYC    C29 1261   2.970   6.619   8.373
   25MYC    H52 1262   3.058   6.685   8.382
   25MYC    H53 1263   2.994   6.513   8.364
   25MYC    C30 1264   2.886   6.655   8.250
   25MYC    H54 1265   2.786   6.609   8.245
   25MYC    H55 1266   2.870   6.764   8.245
   25MYC    C31 1267   2.958   6.620   8.119
   25MYC    H56 1268   3.066   6.637   8.108
   25MYC    H57 1269   2.952   6.511   8.108
   25MYC    C32 1270   2.884   6.683   7.999
   25MYC    H58 1271   2.780   6.648   8.010
   25MYC    H59 1272   2.880   6.792   7.995
   25MYC    C33 1273   2.931   6.632   7.862
   25MYC    H60 1274   3.036   6.665   7.859
   25MYC    H61 1275   2.919   6.523   7.860
   25MYC    C34 1276   2.875   6.702   7.738
   25MYC    H62 1277   2.772   6.669   7.721
   25MYC    H63 1278   2.875   6.812   7.748
   25MYC    C35 1279   2.958   6.665   7.614
   25MYC    H64 1280   3.040   6.739   7.610
   25MYC    H65 1281   3.006   6.568   7.632
   25MYC    C36 1282   2.867   6.659   7.490
   25MYC    H66 1283   2.824   6.559   7.503
   25MYC    H67 1284   2.789   6.737   7.488
   25MYC    C37 1285   2.956   6.659   7.365
   25MYC    H68 1286   3.031   6.738   7.376
   25MYC    H69 1287   3.008   6.562   7.365
   25MYC    C38 1288   2.879   6.675   7.233
   25MYC    H70 1289   2.782   6.623   7.239
   25MYC    H71 1290   2.863   6.784   7.233
   25MYC    C39 1291   2.957   6.619   7.114
   25MYC    H72 1292   3.062   6.616   7.146
   25MYC    H73 1293   2.919   6.518   7.094
   25MYC    C40 1294   2.953   6.712   6.991
   25MYC    H74 1295   2.849   6.744   6.981
   25MYC    H75 1296   3.007   6.806   7.009
   25MYC    C41 1297   2.992   6.648   6.856
   25MYC    H76 1298   3.098   6.636   6.831
   25MYC    H77 1299   2.956   6.545   6.864
   25MYC    C42 1300   2.920   6.723   6.743
   25MYC    H78 1301   2.814   6.723   6.772
   25MYC    H79 1302   2.942   6.829   6.726
   25MYC    C43 1303   2.940   6.641   6.615
   25MYC    H80 1304   2.864   6.662   6.538
   25MYC    H81 1305   2.933   6.534   6.638
   25MYC    H82 1306   3.045   6.651   6.585
   26MYC   5H15 1307   3.612   6.098   6.587
   26MYC    C80 1308   3.570   6.120   6.686
   26MYC   3H15 1309   3.548   6.227   6.689
   26MYC   4H15 1310   3.473   6.069   6.701
   26MYC    C79 1311   3.667   6.087   6.801
   26MYC   1H15 1312   3.761   6.138   6.778
   26MYC   2H15 1313   3.685   5.979   6.809
   26MYC    C78 1314   3.613   6.133   6.937
   26MYC   9H14 1315   3.512   6.091   6.951
   26MYC   0H15 1316   3.608   6.242   6.924
   26MYC    C77 1317   3.697   6.098   7.061
   26MYC   7H14 1318   3.793   6.151   7.056
   26MYC   8H14 1319   3.723   5.991   7.068
   26MYC    C76 1320   3.622   6.136   7.189
   26MYC   5H14 1321   3.531   6.076   7.201
   26MYC   6H14 1322   3.588   6.240   7.190
   26MYC    C75 1323   3.710   6.120   7.314
   26MYC   3H14 1324   3.787   6.198   7.308
   26MYC   4H14 1325   3.759   6.022   7.303
   26MYC    C74 1326   3.645   6.139   7.452
   26MYC   1H14 1327   3.602   6.041   7.472
   26MYC   2H14 1328   3.555   6.201   7.451
   26MYC    C73 1329   3.740   6.177   7.567
   26MYC   9H13 1330   3.768   6.281   7.546
   26MYC   0H14 1331   3.827   6.110   7.561
   26MYC    C72 1332   3.670   6.162   7.704
   26MYC   7H13 1333   3.627   6.062   7.716
   26MYC   8H13 1334   3.585   6.231   7.701
   26MYC    C71 1335   3.763   6.206   7.818
   26MYC   5H13 1336   3.761   6.315   7.830
   26MYC   6H13 1337   3.863   6.163   7.807
   26MYC    C70 1338   3.722   6.143   7.952
   26MYC   3H13 1339   3.709   6.036   7.935
   26MYC   4H13 1340   3.619   6.176   7.966
   26MYC    C69 1341   3.815   6.175   8.070
   26MYC   1H13 1342   3.834   6.282   8.084
   26MYC   2H13 1343   3.913   6.132   8.047
   26MYC    C68 1344   3.760   6.108   8.197
   26MYC   9H12 1345   3.780   6.000   8.191
   26MYC   0H13 1346   3.651   6.114   8.203
   26MYC    C67 1347   3.820   6.168   8.325
   26MYC   7H12 1348   3.800   6.276   8.322
   26MYC   8H12 1349   3.929   6.156   8.322
   26MYC    C66 1350   3.776   6.093   8.452
   26MYC   5H12 1351   3.791   5.985   8.445
   26MYC   6H12 1352   3.666   6.090   8.450
   26MYC    C65 1353   3.836   6.173   8.569
   26MYC   3H12 1354   3.832   6.281   8.551
   26MYC   4H12 1355   3.943   6.156   8.580
   26MYC    C64 1356   3.771   6.133   8.703
   26MYC   1H12 1357   3.794   6.027   8.722
   26MYC   2H12 1358   3.663   6.147   8.689
   26MYC    C63 1359   3.824   6.205   8.827
   26MYC   9H11 1360   3.776   6.304   8.821
   26MYC   0H12 1361   3.933   6.209   8.828
   26MYC    C62 1362   3.794   6.128   8.957
   26MYC   7H11 1363   3.861   6.041   8.960
   26MYC   8H11 1364   3.691   6.091   8.966
   26MYC    C61 1365   3.822   6.208   9.086
   26MYC   5H11 1366   3.749   6.288   9.103
   26MYC   6H11 1367   3.919   6.254   9.065
   26MYC    C60 1368   3.831   6.121   9.211
   26MYC   4H11 1369   3.925   6.070   9.226
   26MYC    C58 1370   3.763   6.168   9.337
   26MYC   1H11 1371   3.707   6.260   9.323
   26MYC    C59 1372   3.707   6.051   9.260
   26MYC   2H11 1373   3.724   5.951   9.301
   26MYC   3H11 1374   3.609   6.074   9.219
   26MYC    C57 1375   3.835   6.152   9.470
   26MYC   9H10 1376   3.903   6.237   9.487
   26MYC   0H11 1377   3.904   6.067   9.469
   26MYC    C56 1378   3.743   6.161   9.593
   26MYC   7H10 1379   3.672   6.079   9.580
   26MYC   8H10 1380   3.689   6.257   9.596
   26MYC    C55 1381   3.807   6.143   9.732
   26MYC   5H10 1382   3.892   6.213   9.734
   26MYC   6H10 1383   3.842   6.041   9.753
   26MYC    C54 1384   3.712   6.178   9.847
   26MYC   3H10 1385   3.631   6.104   9.839
   26MYC   4H10 1386   3.671   6.277   9.824
   26MYC    C53 1387   3.777   6.165   9.986
   26MYC   1H10 1388   3.874   6.215   9.995
   26MYC   2H10 1389   3.802   6.060  10.004
   26MYC    C52 1390   3.679   6.212  10.095
   26MYC    H99 1391   3.578   6.178  10.068
   26MYC   0H10 1392   3.682   6.322  10.092
   26MYC    C51 1393   3.714   6.164  10.237
   26MYC    H97 1394   3.821   6.174  10.258
   26MYC    H98 1395   3.683   6.060  10.248
   26MYC    C50 1396   3.641   6.243  10.348
   26MYC    H95 1397   3.534   6.228  10.330
   26MYC    H96 1398   3.658   6.351  10.342
   26MYC    C49 1399   3.681   6.189  10.486
   26MYC    H93 1400   3.787   6.208  10.508
   26MYC    H94 1401   3.667   6.081  10.493
   26MYC    C48 1402   3.599   6.259  10.595
   26MYC    H91 1403   3.493   6.242  10.571
   26MYC    H92 1404   3.620   6.366  10.582
   26MYC    C47 1405   3.623   6.208  10.738
   26MYC    H89 1406   3.728   6.223  10.766
   26MYC    H90 1407   3.616   6.098  10.738
   26MYC    C46 1408   3.530   6.262  10.848
   26MYC    H87 1409   3.425   6.244  10.821
   26MYC    H88 1410   3.543   6.371  10.860
   26MYC    C45 1411   3.548   6.206  10.990
   26MYC    H85 1412   3.657   6.201  11.005
   26MYC    H86 1413   3.506   6.105  10.996
   26MYC    C44 1414   3.484   6.288  11.103
   26MYC    H83 1415   3.476   6.212  11.182
   26MYC    H84 1416   3.381   6.320  11.081
   26MYC    C18 1417   3.570   6.405  11.148
   26MYC    H31 1418   3.640   6.442  11.074
   26MYC    C17 1419   3.502   6.515  11.227
   26MYC    H30 1420   3.398   6.518  11.257
   26MYC    C19 1421   3.601   6.423  11.294
   26MYC    H32 1422   3.570   6.360  11.377
   26MYC    H33 1423   3.699   6.465  11.313
   26MYC    C16 1424   3.543   6.660  11.208
   26MYC    H28 1425   3.648   6.668  11.176
   26MYC    H29 1426   3.539   6.703  11.308
   26MYC    C15 1427   3.455   6.738  11.109
   26MYC    H26 1428   3.497   6.839  11.101
   26MYC    H27 1429   3.354   6.737  11.150
   26MYC    C14 1430   3.456   6.670  10.970
   26MYC    H24 1431   3.404   6.574  10.970
   26MYC    H25 1432   3.560   6.652  10.939
   26MYC    C13 1433   3.385   6.755  10.863
   26MYC    H22 1434   3.454   6.835  10.836
   26MYC    H23 1435   3.288   6.792  10.899
   26MYC    C12 1436   3.352   6.665  10.743
   26MYC    H20 1437   3.276   6.589  10.762
   26MYC    H21 1438   3.441   6.607  10.713
   26MYC    C11 1439   3.310   6.753  10.624
   26MYC    H18 1440   3.391   6.817  10.588
   26MYC    H19 1441   3.231   6.824  10.651
   26MYC    C10 1442   3.268   6.661  10.509
   26MYC    H16 1443   3.162   6.635  10.515
   26MYC    H17 1444   3.321   6.566  10.523
   26MYC     C9 1445   3.297   6.708  10.366
   26MYC    H14 1446   3.402   6.741  10.364
   26MYC    H15 1447   3.244   6.801  10.342
   26MYC     C8 1448   3.270   6.595  10.265
   26MYC    H12 1449   3.162   6.582  10.255
   26MYC    H13 1450   3.317   6.501  10.299
   26MYC     C7 1451   3.337   6.614  10.128
   26MYC    H10 1452   3.439   6.654  10.133
   26MYC    H11 1453   3.284   6.687  10.066
   26MYC     C6 1454   3.351   6.486  10.043
   26MYC     H8 1455   3.252   6.469   9.998
   26MYC     H9 1456   3.370   6.404  10.113
   26MYC     C5 1457   3.460   6.504   9.937
   26MYC     H6 1458   3.510   6.409   9.914
   26MYC     H7 1459   3.541   6.562   9.982
   26MYC     C4 1460   3.413   6.581   9.812
   26MYC     H4 1461   3.496   6.644   9.780
   26MYC     H5 1462   3.326   6.641   9.841
   26MYC     C2 1463   3.387   6.494   9.688
   26MYC     H2 1464   3.473   6.425   9.688
   26MYC     O3 1465   3.268   6.417   9.696
   26MYC     H3 1466   3.223   6.437   9.780
   26MYC     C1 1467   3.398   6.571   9.556
   26MYC     H1 1468   3.490   6.629   9.569
   26MYC    C81 1469   3.288   6.672   9.528
   26MYC    O82 1470   3.206   6.668   9.438
   26MYC    O83 1471   3.303   6.785   9.600
   26MYC   6H15 1472   3.237   6.843   9.560
   26MYC    C20 1473   3.411   6.459   9.451
   26MYC    H34 1474   3.474   6.372   9.475
   26MYC    H35 1475   3.313   6.416   9.425
   26MYC    C21 1476   3.456   6.509   9.313
   26MYC    H36 1477   3.430   6.616   9.306
   26MYC    H37 1478   3.565   6.504   9.311
   26MYC    C22 1479   3.401   6.425   9.196
   26MYC    H38 1480   3.402   6.318   9.221
   26MYC    H39 1481   3.298   6.453   9.173
   26MYC    C23 1482   3.472   6.453   9.062
   26MYC    H40 1483   3.493   6.561   9.061
   26MYC    H41 1484   3.569   6.401   9.063
   26MYC    C24 1485   3.388   6.413   8.940
   26MYC    H42 1486   3.338   6.317   8.956
   26MYC    H43 1487   3.310   6.489   8.927
   26MYC    C25 1488   3.465   6.410   8.807
   26MYC    H44 1489   3.528   6.499   8.803
   26MYC    H45 1490   3.526   6.319   8.801
   26MYC    C26 1491   3.370   6.414   8.686
   26MYC    H46 1492   3.315   6.320   8.698
   26MYC    H47 1493   3.295   6.494   8.688
   26MYC    C27 1494   3.454   6.424   8.558
   26MYC    H48 1495   3.499   6.524   8.556
   26MYC    H49 1496   3.532   6.347   8.564
   26MYC    C28 1497   3.368   6.399   8.433
   26MYC    H50 1498   3.316   6.303   8.446
   26MYC    H51 1499   3.294   6.477   8.414
   26MYC    C29 1500   3.454   6.392   8.306
   26MYC    H52 1501   3.557   6.423   8.331
   26MYC    H53 1502   3.462   6.288   8.271
   26MYC    C30 1503   3.398   6.476   8.190
   26MYC    H54 1504   3.291   6.454   8.175
   26MYC    H55 1505   3.404   6.583   8.211
   26MYC    C31 1506   3.472   6.444   8.059
   26MYC    H56 1507   3.579   6.458   8.079
   26MYC    H57 1508   3.447   6.342   8.026
   26MYC    C32 1509   3.445   6.561   7.963
   26MYC    H58 1510   3.336   6.576   7.957
   26MYC    H59 1511   3.488   6.651   8.007
   26MYC    C33 1512   3.516   6.535   7.829
   26MYC    H60 1513   3.621   6.563   7.844
   26MYC    H61 1514   3.510   6.431   7.795
   26MYC    C34 1515   3.471   6.631   7.717
   26MYC    H62 1516   3.362   6.636   7.727
   26MYC    H63 1517   3.518   6.730   7.726
   26MYC    C35 1518   3.522   6.579   7.581
   26MYC    H64 1519   3.632   6.583   7.579
   26MYC    H65 1520   3.496   6.472   7.577
   26MYC    C36 1521   3.460   6.644   7.457
   26MYC    H66 1522   3.352   6.646   7.472
   26MYC    H67 1523   3.502   6.745   7.448
   26MYC    C37 1524   3.494   6.563   7.331
   26MYC    H68 1525   3.603   6.566   7.321
   26MYC    H69 1526   3.462   6.458   7.329
   26MYC    C38 1527   3.439   6.625   7.201
   26MYC    H70 1528   3.335   6.651   7.226
   26MYC    H71 1529   3.494   6.718   7.181
   26MYC    C39 1530   3.444   6.532   7.079
   26MYC    H72 1531   3.548   6.510   7.049
   26MYC    H73 1532   3.397   6.434   7.096
   26MYC    C40 1533   3.390   6.605   6.955
   26MYC    H74 1534   3.288   6.630   6.985
   26MYC    H75 1535   3.449   6.692   6.924
   26MYC    C41 1536   3.386   6.509   6.835
   26MYC    H76 1537   3.481   6.454   6.828
   26MYC    H77 1538   3.299   6.444   6.851
   26MYC    C42 1539   3.379   6.594   6.707
   26MYC    H78 1540   3.286   6.650   6.718
   26MYC    H79 1541   3.467   6.659   6.698
   26MYC    C43 1542   3.380   6.504   6.583
   26MYC    H80 1543   3.383   6.565   6.492
   26MYC    H81 1544   3.293   6.439   6.572
   26MYC    H82 1545   3.470   6.441   6.595
   27MYC   5H15 1546   4.502   6.151   6.645
   27MYC    C80 1547   4.452   6.182   6.738
   27MYC   3H15 1548   4.347   6.209   6.723
   27MYC   4H15 1549   4.452   6.086   6.790
   27MYC    C79 1550   4.536   6.290   6.809
   27MYC   1H15 1551   4.555   6.365   6.731
   27MYC   2H15 1552   4.631   6.239   6.830
   27MYC    C78 1553   4.478   6.348   6.939
   27MYC   9H14 1554   4.407   6.275   6.979
   27MYC   0H15 1555   4.422   6.436   6.904
   27MYC    C77 1556   4.581   6.381   7.048
   27MYC   7H14 1557   4.652   6.452   7.003
   27MYC   8H14 1558   4.643   6.292   7.064
   27MYC    C76 1559   4.519   6.422   7.182
   27MYC   5H14 1560   4.447   6.343   7.208
   27MYC   6H14 1561   4.473   6.521   7.173
   27MYC    C75 1562   4.610   6.443   7.304
   27MYC   3H14 1563   4.688   6.514   7.276
   27MYC   4H14 1564   4.657   6.350   7.338
   27MYC    C74 1565   4.529   6.499   7.423
   27MYC   1H14 1566   4.441   6.434   7.422
   27MYC   2H14 1567   4.508   6.602   7.394
   27MYC    C73 1568   4.618   6.485   7.548
   27MYC   9H13 1569   4.702   6.555   7.548
   27MYC   0H14 1570   4.657   6.382   7.555
   27MYC    C72 1571   4.535   6.519   7.673
   27MYC   7H13 1572   4.443   6.459   7.678
   27MYC   8H13 1573   4.516   6.627   7.667
   27MYC    C71 1574   4.614   6.469   7.796
   27MYC   5H13 1575   4.717   6.506   7.791
   27MYC   6H13 1576   4.624   6.360   7.800
   27MYC    C70 1577   4.549   6.526   7.924
   27MYC   3H13 1578   4.447   6.490   7.941
   27MYC   4H13 1579   4.542   6.635   7.918
   27MYC    C69 1580   4.633   6.479   8.044
   27MYC   1H13 1581   4.738   6.508   8.030
   27MYC   2H13 1582   4.640   6.369   8.047
   27MYC    C68 1583   4.583   6.526   8.182
   27MYC   9H12 1584   4.494   6.463   8.197
   27MYC   0H13 1585   4.546   6.629   8.184
   27MYC    C67 1586   4.669   6.494   8.305
   27MYC   7H12 1587   4.748   6.569   8.310
   27MYC   8H12 1588   4.722   6.398   8.298
   27MYC    C66 1589   4.596   6.500   8.440
   27MYC   5H12 1590   4.518   6.423   8.432
   27MYC   6H12 1591   4.555   6.600   8.456
   27MYC    C65 1592   4.678   6.472   8.568
   27MYC   3H12 1593   4.754   6.548   8.589
   27MYC   4H12 1594   4.733   6.381   8.544
   27MYC    C64 1595   4.578   6.455   8.684
   27MYC   1H12 1596   4.498   6.388   8.651
   27MYC   2H12 1597   4.537   6.552   8.713
   27MYC    C63 1598   4.652   6.391   8.802
   27MYC   9H11 1599   4.734   6.456   8.834
   27MYC   0H12 1600   4.681   6.290   8.771
   27MYC    C62 1601   4.559   6.369   8.923
   27MYC   7H11 1602   4.479   6.299   8.893
   27MYC   8H11 1603   4.507   6.461   8.952
   27MYC    C61 1604   4.632   6.308   9.044
   27MYC   5H11 1605   4.720   6.370   9.065
   27MYC   6H11 1606   4.670   6.208   9.020
   27MYC    C60 1607   4.534   6.312   9.161
   27MYC   4H11 1608   4.442   6.261   9.134
   27MYC    C58 1609   4.562   6.319   9.309
   27MYC   1H11 1610   4.669   6.311   9.330
   27MYC    C59 1611   4.515   6.442   9.235
   27MYC   2H11 1612   4.416   6.484   9.250
   27MYC   3H11 1613   4.587   6.521   9.213
   27MYC    C57 1614   4.472   6.245   9.406
   27MYC   9H10 1615   4.524   6.154   9.437
   27MYC   0H11 1616   4.377   6.223   9.355
   27MYC    C56 1617   4.441   6.329   9.531
   27MYC   7H10 1618   4.332   6.332   9.546
   27MYC   8H10 1619   4.459   6.436   9.514
   27MYC    C55 1620   4.511   6.287   9.661
   27MYC   5H10 1621   4.620   6.294   9.646
   27MYC   6H10 1622   4.492   6.181   9.679
   27MYC    C54 1623   4.468   6.367   9.786
   27MYC   3H10 1624   4.364   6.344   9.813
   27MYC   4H10 1625   4.494   6.472   9.769
   27MYC    C53 1626   4.553   6.324   9.907
   27MYC   1H10 1627   4.659   6.327   9.880
   27MYC   2H10 1628   4.518   6.226   9.942
   27MYC    C52 1629   4.540   6.432  10.016
   27MYC    H99 1630   4.435   6.464  10.023
   27MYC   0H10 1631   4.595   6.520   9.981
   27MYC    C51 1632   4.591   6.384  10.152
   27MYC    H97 1633   4.699   6.365  10.153
   27MYC    H98 1634   4.547   6.284  10.167
   27MYC    C50 1635   4.555   6.482  10.264
   27MYC    H95 1636   4.446   6.474  10.256
   27MYC    H96 1637   4.580   6.586  10.240
   27MYC    C49 1638   4.609   6.447  10.404
   27MYC    H93 1639   4.717   6.428  10.403
   27MYC    H94 1640   4.571   6.348  10.433
   27MYC    C48 1641   4.576   6.541  10.521
   27MYC    H91 1642   4.468   6.562  10.525
   27MYC    H92 1643   4.611   6.642  10.499
   27MYC    C47 1644   4.626   6.498  10.660
   27MYC    H89 1645   4.603   6.574  10.737
   27MYC    H90 1646   4.732   6.472  10.653
   27MYC    C46 1647   4.551   6.375  10.713
   27MYC    H87 1648   4.508   6.313  10.633
   27MYC    H88 1649   4.466   6.414  10.770
   27MYC    C45 1650   4.640   6.279  10.794
   27MYC    H85 1651   4.671   6.326  10.888
   27MYC    H86 1652   4.727   6.262  10.730
   27MYC    C44 1653   4.570   6.145  10.825
   27MYC    H83 1654   4.642   6.063  10.841
   27MYC    H84 1655   4.508   6.110  10.742
   27MYC    C18 1656   4.478   6.152  10.946
   27MYC    H31 1657   4.455   6.251  10.983
   27MYC    C17 1658   4.362   6.056  10.959
   27MYC    H30 1659   4.349   5.979  10.884
   27MYC    C19 1660   4.482   6.042  11.050
   27MYC    H32 1661   4.539   5.951  11.037
   27MYC    H33 1662   4.470   6.081  11.151
   27MYC    C16 1663   4.229   6.095  11.022
   27MYC    H28 1664   4.249   6.189  11.075
   27MYC    H29 1665   4.200   6.018  11.094
   27MYC    C15 1666   4.117   6.110  10.917
   27MYC    H26 1667   4.028   6.121  10.981
   27MYC    H27 1668   4.092   6.018  10.862
   27MYC    C14 1669   4.144   6.233  10.830
   27MYC    H24 1670   4.239   6.201  10.784
   27MYC    H25 1671   4.155   6.314  10.904
   27MYC    C13 1672   4.043   6.274  10.722
   27MYC    H22 1673   3.939   6.262  10.756
   27MYC    H23 1674   4.062   6.207  10.637
   27MYC    C12 1675   4.072   6.416  10.671
   27MYC    H20 1676   4.167   6.430  10.618
   27MYC    H21 1677   4.078   6.478  10.762
   27MYC    C11 1678   3.953   6.469  10.589
   27MYC    H18 1679   3.948   6.579  10.595
   27MYC    H19 1680   3.854   6.442  10.628
   27MYC    C10 1681   3.952   6.433  10.440
   27MYC    H16 1682   3.854   6.467  10.406
   27MYC    H17 1683   3.959   6.323  10.430
   27MYC     C9 1684   4.061   6.500  10.355
   27MYC    H14 1685   4.149   6.435  10.350
   27MYC    H15 1686   4.102   6.589  10.405
   27MYC     C8 1687   4.010   6.534  10.214
   27MYC    H12 1688   3.951   6.626  10.222
   27MYC    H13 1689   3.949   6.452  10.174
   27MYC     C7 1690   4.121   6.570  10.115
   27MYC    H10 1691   4.180   6.478  10.101
   27MYC    H11 1692   4.184   6.642  10.168
   27MYC     C6 1693   4.065   6.616   9.979
   27MYC     H8 1694   4.034   6.721   9.983
   27MYC     H9 1695   3.983   6.553   9.942
   27MYC     C5 1696   4.180   6.625   9.878
   27MYC     H6 1697   4.233   6.531   9.862
   27MYC     H7 1698   4.256   6.694   9.917
   27MYC     C4 1699   4.148   6.687   9.740
   27MYC     H4 1700   4.244   6.720   9.699
   27MYC     H5 1701   4.087   6.777   9.754
   27MYC     C2 1702   4.080   6.595   9.638
   27MYC     H2 1703   4.139   6.611   9.546
   27MYC     O3 1704   4.081   6.455   9.665
   27MYC     H3 1705   4.016   6.444   9.737
   27MYC     C1 1706   3.941   6.641   9.594
   27MYC     H1 1707   3.949   6.749   9.578
   27MYC    C81 1708   3.837   6.602   9.698
   27MYC    O82 1709   3.779   6.495   9.709
   27MYC    O83 1710   3.811   6.697   9.791
   27MYC   6H15 1711   3.737   6.659   9.841
   27MYC    C20 1712   3.887   6.580   9.463
   27MYC    H34 1713   3.875   6.471   9.470
   27MYC    H35 1714   3.788   6.625   9.447
   27MYC    C21 1715   3.970   6.627   9.342
   27MYC    H36 1716   3.971   6.736   9.336
   27MYC    H37 1717   4.073   6.593   9.358
   27MYC    C22 1718   3.903   6.568   9.216
   27MYC    H38 1719   3.939   6.465   9.209
   27MYC    H39 1720   3.794   6.554   9.217
   27MYC    C23 1721   3.946   6.651   9.094
   27MYC    H40 1722   3.898   6.748   9.108
   27MYC    H41 1723   4.053   6.675   9.096
   27MYC    C24 1724   3.912   6.597   8.954
   27MYC    H42 1725   3.924   6.488   8.954
   27MYC    H43 1726   3.808   6.624   8.931
   27MYC    C25 1727   4.010   6.652   8.849
   27MYC    H44 1728   3.979   6.756   8.834
   27MYC    H45 1729   4.115   6.652   8.881
   27MYC    C26 1730   4.001   6.572   8.718
   27MYC    H46 1731   4.034   6.468   8.732
   27MYC    H47 1732   3.898   6.547   8.691
   27MYC    C27 1733   4.073   6.638   8.599
   27MYC    H48 1734   4.024   6.735   8.587
   27MYC    H49 1735   4.181   6.652   8.615
   27MYC    C28 1736   4.061   6.553   8.471
   27MYC    H50 1737   4.103   6.453   8.491
   27MYC    H51 1738   3.955   6.544   8.447
   27MYC    C29 1739   4.121   6.617   8.345
   27MYC    H52 1740   4.071   6.715   8.341
   27MYC    H53 1741   4.227   6.637   8.364
   27MYC    C30 1742   4.100   6.529   8.221
   27MYC    H54 1743   4.167   6.448   8.250
   27MYC    H55 1744   4.002   6.482   8.214
   27MYC    C31 1745   4.133   6.586   8.081
   27MYC    H56 1746   4.089   6.686   8.075
   27MYC    H57 1747   4.242   6.601   8.079
   27MYC    C32 1748   4.092   6.501   7.960
   27MYC    H58 1749   4.128   6.397   7.969
   27MYC    H59 1750   3.982   6.501   7.954
   27MYC    C33 1751   4.154   6.559   7.832
   27MYC    H60 1752   4.132   6.666   7.833
   27MYC    H61 1753   4.262   6.544   7.826
   27MYC    C34 1754   4.096   6.490   7.707
   27MYC    H62 1755   4.144   6.391   7.697
   27MYC    H63 1756   3.988   6.474   7.717
   27MYC    C35 1757   4.132   6.558   7.574
   27MYC    H64 1758   4.107   6.664   7.588
   27MYC    H65 1759   4.240   6.545   7.562
   27MYC    C36 1760   4.057   6.490   7.458
   27MYC    H66 1761   4.078   6.382   7.464
   27MYC    H67 1762   3.950   6.511   7.476
   27MYC    C37 1763   4.084   6.529   7.312
   27MYC    H68 1764   4.083   6.639   7.306
   27MYC    H69 1765   4.182   6.499   7.275
   27MYC    C38 1766   3.975   6.474   7.218
   27MYC    H70 1767   3.980   6.365   7.225
   27MYC    H71 1768   3.879   6.503   7.262
   27MYC    C39 1769   3.985   6.527   7.074
   27MYC    H72 1770   3.996   6.636   7.080
   27MYC    H73 1771   4.074   6.486   7.024
   27MYC    C40 1772   3.857   6.509   6.992
   27MYC    H74 1773   3.812   6.408   6.994
   27MYC    H75 1774   3.786   6.582   7.034
   27MYC    C41 1775   3.881   6.547   6.845
   27MYC    H76 1776   3.925   6.648   6.844
   27MYC    H77 1777   3.951   6.475   6.800
   27MYC    C42 1778   3.749   6.541   6.767
   27MYC    H78 1779   3.715   6.437   6.756
   27MYC    H79 1780   3.669   6.596   6.817
   27MYC    C43 1781   3.768   6.598   6.625
   27MYC    H80 1782   3.692   6.561   6.555
   27MYC    H81 1783   3.858   6.568   6.570
   27MYC    H82 1784   3.753   6.706   6.619
   28MYC   5H15 1785   5.569   0.106   6.631
   28MYC    C80 1786   5.502   0.082   6.714
   28MYC   3H15 1787   5.401   0.120   6.696
   28MYC   4H15 1788   5.505  -0.027   6.719
   28MYC    C79 1789   5.557   0.143   6.844
   28MYC   1H15 1790   5.558   0.253   6.848
   28MYC   2H15 1791   5.662   0.110   6.850
   28MYC    C78 1792   5.479   0.096   6.968
   28MYC   9H14 1793   5.462  -0.012   6.971
   28MYC   0H15 1794   5.379   0.141   6.971
   28MYC    C77 1795   5.555   0.153   7.089
   28MYC   7H14 1796   5.573   0.261   7.088
   28MYC   8H14 1797   5.650   0.100   7.104
   28MYC    C76 1798   5.476   0.130   7.218
   28MYC   5H14 1799   5.433   0.029   7.222
   28MYC   6H14 1800   5.397   0.206   7.224
   28MYC    C75 1801   5.554   0.155   7.348
   28MYC   3H14 1802   5.580   0.261   7.348
   28MYC   4H14 1803   5.648   0.099   7.354
   28MYC    C74 1804   5.477   0.129   7.479
   28MYC   1H14 1805   5.437   0.028   7.493
   28MYC   2H14 1806   5.389   0.193   7.481
   28MYC    C73 1807   5.559   0.150   7.608
   28MYC   9H13 1808   5.569   0.257   7.630
   28MYC   0H14 1809   5.660   0.108   7.603
   28MYC    C72 1810   5.492   0.085   7.731
   28MYC   7H13 1811   5.494  -0.024   7.723
   28MYC   8H13 1812   5.387   0.112   7.742
   28MYC    C71 1813   5.576   0.122   7.854
   28MYC   5H13 1814   5.617   0.224   7.852
   28MYC   6H13 1815   5.671   0.067   7.854
   28MYC    C70 1816   5.498   0.093   7.984
   28MYC   3H13 1817   5.454  -0.007   7.994
   28MYC   4H13 1818   5.409   0.157   7.979
   28MYC    C69 1819   5.590   0.125   8.103
   28MYC   1H13 1820   5.632   0.226   8.096
   28MYC   2H13 1821   5.671   0.051   8.104
   28MYC    C68 1822   5.515   0.134   8.237
   28MYC   9H12 1823   5.469   0.036   8.256
   28MYC   0H13 1824   5.438   0.211   8.228
   28MYC    C67 1825   5.611   0.166   8.354
   28MYC   7H12 1826   5.653   0.267   8.343
   28MYC   8H12 1827   5.702   0.105   8.343
   28MYC    C66 1828   5.544   0.145   8.491
   28MYC   5H12 1829   5.529   0.040   8.519
   28MYC   6H12 1830   5.442   0.187   8.493
   28MYC    C65 1831   5.619   0.221   8.601
   28MYC   3H12 1832   5.602   0.329   8.593
   28MYC   4H12 1833   5.724   0.192   8.585
   28MYC    C64 1834   5.577   0.174   8.741
   28MYC   1H12 1835   5.592   0.066   8.753
   28MYC   2H12 1836   5.473   0.198   8.765
   28MYC    C63 1837   5.645   0.249   8.857
   28MYC   9H11 1838   5.587   0.227   8.947
   28MYC   0H12 1839   5.647   0.358   8.844
   28MYC    C62 1840   5.788   0.203   8.891
   28MYC   7H11 1841   5.849   0.224   8.802
   28MYC   8H11 1842   5.794   0.097   8.918
   28MYC    C61 1843   5.849   0.272   9.014
   28MYC   5H11 1844   5.813   0.375   9.008
   28MYC   6H11 1845   5.958   0.281   9.009
   28MYC    C60 1846   5.808   0.213   9.148
   28MYC   4H11 1847   5.855   0.116   9.158
   28MYC    C58 1848   5.789   0.291   9.276
   28MYC   1H11 1849   5.812   0.397   9.267
   28MYC    C59 1850   5.670   0.228   9.207
   28MYC   2H11 1851   5.624   0.143   9.256
   28MYC   3H11 1852   5.598   0.292   9.156
   28MYC    C57 1853   5.835   0.230   9.408
   28MYC   9H10 1854   5.932   0.271   9.439
   28MYC   0H11 1855   5.861   0.126   9.384
   28MYC    C56 1856   5.730   0.257   9.516
   28MYC   7H10 1857   5.644   0.196   9.488
   28MYC   8H10 1858   5.709   0.365   9.514
   28MYC    C55 1859   5.778   0.214   9.656
   28MYC   5H10 1860   5.864   0.275   9.686
   28MYC   6H10 1861   5.816   0.112   9.644
   28MYC    C54 1862   5.682   0.207   9.776
   28MYC   3H10 1863   5.618   0.122   9.748
   28MYC   4H10 1864   5.626   0.301   9.772
   28MYC    C53 1865   5.748   0.182   9.913
   28MYC   1H10 1866   5.836   0.247   9.919
   28MYC   2H10 1867   5.795   0.083   9.919
   28MYC    C52 1868   5.649   0.203  10.029
   28MYC    H99 1869   5.567   0.132  10.015
   28MYC   0H10 1870   5.605   0.303  10.020
   28MYC    C51 1871   5.708   0.201  10.171
   28MYC    H97 1872   5.751   0.301  10.185
   28MYC    H98 1873   5.786   0.124  10.172
   28MYC    C50 1874   5.599   0.173  10.275
   28MYC    H95 1875   5.551   0.075  10.260
   28MYC    H96 1876   5.520   0.249  10.267
   28MYC    C49 1877   5.652   0.183  10.419
   28MYC    H93 1878   5.683   0.285  10.441
   28MYC    H94 1879   5.746   0.127  10.432
   28MYC    C48 1880   5.545   0.142  10.521
   28MYC    H91 1881   5.508   0.041  10.498
   28MYC    H92 1882   5.452   0.200  10.510
   28MYC    C47 1883   5.591   0.151  10.667
   28MYC    H89 1884   5.627   0.255  10.669
   28MYC    H90 1885   5.687   0.101  10.684
   28MYC    C46 1886   5.481   0.115  10.769
   28MYC    H87 1887   5.442   0.016  10.741
   28MYC    H88 1888   5.405   0.192  10.754
   28MYC    C45 1889   5.541   0.120  10.911
   28MYC    H85 1890   5.558   0.225  10.939
   28MYC    H86 1891   5.641   0.076  10.903
   28MYC    C44 1892   5.463   0.043  11.019
   28MYC    H83 1893   5.524   0.032  11.109
   28MYC    H84 1894   5.447  -0.057  10.977
   28MYC    C18 1895   5.326   0.088  11.069
   28MYC    H31 1896   5.287   0.167  11.005
   28MYC    C17 1897   5.231  -0.010  11.133
   28MYC    H30 1898   5.271  -0.108  11.156
   28MYC    C19 1899   5.292   0.101  11.215
   28MYC    H32 1900   5.360   0.068  11.292
   28MYC    H33 1901   5.223   0.183  11.235
   28MYC    C16 1902   5.079  -0.000  11.120
   28MYC    H28 1903   5.037   0.090  11.075
   28MYC    H29 1904   5.027  -0.013  11.216
   28MYC    C15 1905   5.029  -0.115  11.031
   28MYC    H26 1906   4.920  -0.105  11.035
   28MYC    H27 1907   5.051  -0.211  11.078
   28MYC    C14 1908   5.073  -0.117  10.883
   28MYC    H24 1909   5.183  -0.115  10.887
   28MYC    H25 1910   5.046  -0.025  10.829
   28MYC    C13 1911   5.021  -0.241  10.810
   28MYC    H22 1912   4.914  -0.255  10.831
   28MYC    H23 1913   5.061  -0.340  10.835
   28MYC    C12 1914   5.041  -0.232  10.658
   28MYC    H20 1915   5.151  -0.232  10.650
   28MYC    H21 1916   5.019  -0.135  10.610
   28MYC    C11 1917   4.989  -0.350  10.574
   28MYC    H18 1918   4.881  -0.355  10.554
   28MYC    H19 1919   5.007  -0.435  10.640
   28MYC    C10 1920   5.073  -0.370  10.447
   28MYC    H16 1921   5.063  -0.476  10.422
   28MYC    H17 1922   5.177  -0.362  10.482
   28MYC     C9 1923   5.043  -0.273  10.330
   28MYC    H14 1924   5.090  -0.178  10.356
   28MYC    H15 1925   4.934  -0.274  10.328
   28MYC     C8 1926   5.100  -0.333  10.200
   28MYC    H12 1927   5.127  -0.439  10.209
   28MYC    H13 1928   5.200  -0.291  10.186
   28MYC     C7 1929   5.008  -0.314  10.079
   28MYC    H10 1930   4.997  -0.205  10.072
   28MYC    H11 1931   4.917  -0.376  10.083
   28MYC     C6 1932   5.084  -0.343   9.948
   28MYC     H8 1933   5.096  -0.452   9.945
   28MYC     H9 1934   5.184  -0.300   9.959
   28MYC     C5 1935   5.010  -0.296   9.822
   28MYC     H6 1936   5.081  -0.279   9.741
   28MYC     H7 1937   4.960  -0.201   9.849
   28MYC     C4 1938   4.903  -0.395   9.775
   28MYC     H4 1939   4.807  -0.348   9.799
   28MYC     H5 1940   4.897  -0.488   9.835
   28MYC     C2 1941   4.923  -0.441   9.630
   28MYC     H2 1942   4.943  -0.349   9.573
   28MYC     O3 1943   5.041  -0.520   9.619
   28MYC     H3 1944   5.105  -0.487   9.684
   28MYC     C1 1945   4.808  -0.511   9.557
   28MYC     H1 1946   4.722  -0.443   9.569
   28MYC    C81 1947   4.779  -0.641   9.632
   28MYC    O82 1948   4.834  -0.747   9.609
   28MYC    O83 1949   4.682  -0.630   9.725
   28MYC   6H15 1950   4.663  -0.724   9.740
   28MYC    C20 1951   4.834  -0.528   9.406
   28MYC    H34 1952   4.909  -0.607   9.392
   28MYC    H35 1953   4.742  -0.566   9.359
   28MYC    C21 1954   4.884  -0.407   9.327
   28MYC    H36 1955   4.834  -0.314   9.358
   28MYC    H37 1956   4.991  -0.403   9.352
   28MYC    C22 1957   4.865  -0.427   9.175
   28MYC    H38 1958   4.893  -0.530   9.150
   28MYC    H39 1959   4.760  -0.422   9.143
   28MYC    C23 1960   4.937  -0.329   9.081
   28MYC    H40 1961   4.923  -0.222   9.100
   28MYC    H41 1962   5.044  -0.338   9.106
   28MYC    C24 1963   4.916  -0.367   8.934
   28MYC    H42 1964   4.954  -0.467   8.911
   28MYC    H43 1965   4.809  -0.374   8.909
   28MYC    C25 1966   4.988  -0.269   8.839
   28MYC    H44 1967   4.945  -0.169   8.855
   28MYC    H45 1968   5.096  -0.263   8.860
   28MYC    C26 1969   4.960  -0.288   8.689
   28MYC    H46 1970   5.009  -0.385   8.671
   28MYC    H47 1971   4.851  -0.291   8.680
   28MYC    C27 1972   5.017  -0.186   8.589
   28MYC    H48 1973   4.977  -0.087   8.611
   28MYC    H49 1974   5.126  -0.170   8.582
   28MYC    C28 1975   4.973  -0.225   8.447
   28MYC    H50 1976   5.002  -0.330   8.429
   28MYC    H51 1977   4.864  -0.217   8.449
   28MYC    C29 1978   5.038  -0.140   8.336
   28MYC    H52 1979   4.995  -0.039   8.338
   28MYC    H53 1980   5.146  -0.132   8.353
   28MYC    C30 1981   5.004  -0.186   8.193
   28MYC    H54 1982   5.031  -0.292   8.185
   28MYC    H55 1983   4.895  -0.185   8.184
   28MYC    C31 1984   5.062  -0.109   8.073
   28MYC    H56 1985   5.064  -0.001   8.093
   28MYC    H57 1986   5.167  -0.141   8.065
   28MYC    C32 1987   4.984  -0.139   7.944
   28MYC    H58 1988   4.981  -0.248   7.926
   28MYC    H59 1989   4.883  -0.098   7.958
   28MYC    C33 1990   5.050  -0.073   7.823
   28MYC    H60 1991   5.055   0.037   7.832
   28MYC    H61 1992   5.159  -0.088   7.826
   28MYC    C34 1993   4.996  -0.120   7.687
   28MYC    H62 1994   4.974  -0.227   7.682
   28MYC    H63 1995   4.899  -0.070   7.680
   28MYC    C35 1996   5.086  -0.085   7.568
   28MYC    H64 1997   5.088   0.024   7.550
   28MYC    H65 1998   5.193  -0.102   7.588
   28MYC    C36 1999   5.041  -0.159   7.441
   28MYC    H66 2000   5.071  -0.263   7.454
   28MYC    H67 2001   4.932  -0.154   7.448
   28MYC    C37 2002   5.102  -0.113   7.307
   28MYC    H68 2003   5.098  -0.003   7.302
   28MYC    H69 2004   5.209  -0.137   7.317
   28MYC    C38 2005   5.049  -0.179   7.179
   28MYC    H70 2006   5.084  -0.283   7.172
   28MYC    H71 2007   4.939  -0.181   7.175
   28MYC    C39 2008   5.110  -0.102   7.061
   28MYC    H72 2009   5.064  -0.003   7.058
   28MYC    H73 2010   5.216  -0.077   7.068
   28MYC    C40 2011   5.086  -0.178   6.929
   28MYC    H74 2012   5.093  -0.286   6.947
   28MYC    H75 2013   4.980  -0.162   6.907
   28MYC    C41 2014   5.178  -0.129   6.815
   28MYC    H76 2015   5.200  -0.023   6.830
   28MYC    H77 2016   5.267  -0.192   6.817
   28MYC    C42 2017   5.105  -0.142   6.680
   28MYC    H78 2018   5.101  -0.248   6.652
   28MYC    H79 2019   4.999  -0.115   6.686
   28MYC    C43 2020   5.175  -0.055   6.574
   28MYC    H80 2021   5.115  -0.073   6.485
   28MYC    H81 2022   5.277  -0.093   6.562
   28MYC    H82 2023   5.168   0.053   6.594
   29MYC   5H15 2024   5.691   6.189   6.574
   29MYC    C80 2025   5.726   6.222   6.673
   29MYC   3H15 2026   5.830   6.188   6.674
   29MYC   4H15 2027   5.725   6.331   6.684
   29MYC    C79 2028   5.645   6.171   6.793
   29MYC   1H15 2029   5.625   6.064   6.777
   29MYC   2H15 2030   5.559   6.235   6.816
   29MYC    C78 2031   5.739   6.169   6.914
   29MYC   9H14 2032   5.785   6.268   6.921
   29MYC   0H15 2033   5.829   6.107   6.901
   29MYC    C77 2034   5.671   6.133   7.047
   29MYC   7H14 2035   5.649   6.025   7.052
   29MYC   8H14 2036   5.578   6.189   7.063
   29MYC    C76 2037   5.767   6.156   7.165
   29MYC   5H14 2038   5.797   6.261   7.159
   29MYC   6H14 2039   5.862   6.107   7.142
   29MYC    C75 2040   5.710   6.121   7.304
   29MYC   3H14 2041   5.721   6.012   7.308
   29MYC   4H14 2042   5.605   6.150   7.318
   29MYC    C74 2043   5.788   6.186   7.419
   29MYC   1H14 2044   5.769   6.292   7.438
   29MYC   2H14 2045   5.894   6.167   7.396
   29MYC    C73 2046   5.755   6.116   7.552
   29MYC   9H13 2047   5.831   6.038   7.566
   29MYC   0H14 2048   5.662   6.059   7.541
   29MYC    C72 2049   5.733   6.214   7.668
   29MYC   7H13 2050   5.639   6.271   7.659
   29MYC   8H13 2051   5.807   6.295   7.674
   29MYC    C71 2052   5.738   6.136   7.801
   29MYC   5H13 2053   5.836   6.089   7.807
   29MYC   6H13 2054   5.672   6.048   7.794
   29MYC    C70 2055   5.711   6.221   7.926
   29MYC   3H13 2056   5.604   6.247   7.929
   29MYC   4H13 2057   5.771   6.313   7.918
   29MYC    C69 2058   5.755   6.151   8.055
   29MYC   1H13 2059   5.857   6.111   8.045
   29MYC   2H13 2060   5.696   6.059   8.067
   29MYC    C68 2061   5.751   6.243   8.179
   29MYC   9H12 2062   5.649   6.284   8.184
   29MYC   0H13 2063   5.822   6.324   8.159
   29MYC    C67 2064   5.803   6.169   8.303
   29MYC   7H12 2065   5.902   6.126   8.287
   29MYC   8H12 2066   5.743   6.076   8.309
   29MYC    C66 2067   5.782   6.240   8.438
   29MYC   5H12 2068   5.682   6.286   8.430
   29MYC   6H12 2069   5.835   6.336   8.439
   29MYC    C65 2070   5.817   6.164   8.566
   29MYC   3H12 2071   5.924   6.181   8.584
   29MYC   4H12 2072   5.794   6.057   8.559
   29MYC    C64 2073   5.747   6.232   8.685
   29MYC   1H12 2074   5.642   6.251   8.660
   29MYC   2H12 2075   5.798   6.328   8.700
   29MYC    C63 2076   5.749   6.149   8.815
   29MYC   9H11 2077   5.848   6.108   8.836
   29MYC   0H12 2078   5.687   6.060   8.799
   29MYC    C62 2079   5.701   6.232   8.935
   29MYC   7H11 2080   5.615   6.295   8.908
   29MYC   8H11 2081   5.780   6.301   8.964
   29MYC    C61 2082   5.650   6.156   9.059
   29MYC   5H11 2083   5.719   6.072   9.079
   29MYC   6H11 2084   5.548   6.121   9.040
   29MYC    C60 2085   5.644   6.248   9.180
   29MYC   4H11 2086   5.581   6.334   9.161
   29MYC    C58 2087   5.642   6.190   9.320
   29MYC   1H11 2088   5.657   6.082   9.324
   29MYC    C59 2089   5.763   6.267   9.272
   29MYC   2H11 2090   5.781   6.361   9.324
   29MYC   3H11 2091   5.849   6.203   9.256
   29MYC    C57 2092   5.567   6.252   9.437
   29MYC   9H10 2093   5.462   6.219   9.437
   29MYC   0H11 2094   5.563   6.361   9.432
   29MYC    C56 2095   5.639   6.212   9.567
   29MYC   7H10 2096   5.741   6.251   9.570
   29MYC   8H10 2097   5.657   6.104   9.569
   29MYC    C55 2098   5.564   6.246   9.697
   29MYC   5H10 2099   5.481   6.176   9.710
   29MYC   6H10 2100   5.531   6.350   9.710
   29MYC    C54 2101   5.650   6.223   9.822
   29MYC   3H10 2102   5.734   6.293   9.819
   29MYC   4H10 2103   5.698   6.124   9.827
   29MYC    C53 2104   5.577   6.246   9.956
   29MYC   1H10 2105   5.498   6.174   9.979
   29MYC   2H10 2106   5.519   6.340   9.957
   29MYC    C52 2107   5.679   6.245  10.071
   29MYC    H99 2108   5.728   6.344  10.072
   29MYC   0H10 2109   5.755   6.167  10.063
   29MYC    C51 2110   5.610   6.223  10.206
   29MYC    H97 2111   5.575   6.119  10.211
   29MYC    H98 2112   5.521   6.286  10.213
   29MYC    C50 2113   5.708   6.231  10.324
   29MYC    H95 2114   5.757   6.329  10.311
   29MYC    H96 2115   5.783   6.152  10.313
   29MYC    C49 2116   5.641   6.209  10.461
   29MYC    H93 2117   5.610   6.104  10.471
   29MYC    H94 2118   5.545   6.261  10.468
   29MYC    C48 2119   5.725   6.255  10.582
   29MYC    H91 2120   5.733   6.364  10.580
   29MYC    H92 2121   5.825   6.209  10.583
   29MYC    C47 2122   5.644   6.203  10.701
   29MYC    H89 2123   5.621   6.096  10.686
   29MYC    H90 2124   5.548   6.256  10.705
   29MYC    C46 2125   5.713   6.219  10.837
   29MYC    H87 2126   5.716   6.327  10.854
   29MYC    H88 2127   5.816   6.183  10.827
   29MYC    C45 2128   5.636   6.149  10.950
   29MYC    H85 2129   5.623   6.040  10.937
   29MYC    H86 2130   5.531   6.179  10.938
   29MYC    C44 2131   5.691   6.179  11.091
   29MYC    H83 2132   5.620   6.125  11.154
   29MYC    H84 2133   5.677   6.286  11.115
   29MYC    C18 2134   5.836   6.141  11.116
   29MYC    H31 2135   5.876   6.091  11.029
   29MYC    C17 2136   5.931   6.210  11.211
   29MYC    H30 2137   5.891   6.295  11.264
   29MYC    C19 2138   5.872   6.076  11.247
   29MYC    H32 2139   5.796   6.079  11.325
   29MYC    H33 2140   5.937   5.989  11.242
   29MYC    C16 2141   6.078   6.222  11.174
   29MYC    H28 2142   6.116   6.125  11.137
   29MYC    H29 2143   6.139   6.253  11.259
   29MYC    C15 2144   6.118   6.333  11.076
   29MYC    H26 2145   6.226   6.351  11.081
   29MYC    H27 2146   6.068   6.428  11.101
   29MYC    C14 2147   6.087   6.294  10.930
   29MYC    H24 2148   5.993   6.342  10.899
   29MYC    H25 2149   6.079   6.186  10.917
   29MYC    C13 2150   6.193   6.342  10.830
   29MYC    H22 2151   6.291   6.296  10.849
   29MYC    H23 2152   6.220   6.448  10.835
   29MYC    C12 2153   6.151   6.319  10.683
   29MYC    H20 2154   6.103   6.414  10.658
   29MYC    H21 2155   6.088   6.229  10.677
   29MYC    C11 2156   6.265   6.287  10.586
   29MYC    H18 2157   6.323   6.199  10.616
   29MYC    H19 2158   6.344   6.363  10.592
   29MYC    C10 2159   6.212   6.262  10.444
   29MYC    H16 2160   6.117   6.206  10.447
   29MYC    H17 2161   6.271   6.185  10.391
   29MYC     C9 2162   6.188   6.392  10.366
   29MYC    H14 2163   6.288   6.433  10.347
   29MYC    H15 2164   6.136   6.466  10.428
   29MYC     C8 2165   6.119   6.366  10.230
   29MYC    H12 2166   6.011   6.383  10.237
   29MYC    H13 2167   6.133   6.261  10.201
   29MYC     C7 2168   6.177   6.445  10.112
   29MYC    H10 2169   6.286   6.432  10.104
   29MYC    H11 2170   6.157   6.551  10.133
   29MYC     C6 2171   6.117   6.404   9.977
   29MYC     H8 2172   6.013   6.438   9.965
   29MYC     H9 2173   6.108   6.295   9.964
   29MYC     C5 2174   6.191   6.460   9.854
   29MYC     H6 2175   6.297   6.433   9.848
   29MYC     H7 2176   6.184   6.569   9.862
   29MYC     C4 2177   6.116   6.417   9.727
   29MYC     H4 2178   6.017   6.464   9.725
   29MYC     H5 2179   6.101   6.308   9.729
   29MYC     C2 2180   6.179   6.438   9.588
   29MYC     H2 2181   6.088   6.437   9.527
   29MYC     O3 2182   6.229   6.572   9.581
   29MYC     H3 2183   6.287   6.582   9.659
   29MYC     C1 2184   6.279   6.333   9.539
   29MYC     H1 2185   6.231   6.236   9.522
   29MYC    C81 2186   6.400   6.319   9.631
   29MYC    O82 2187   6.499   6.391   9.629
   29MYC    O83 2188   6.386   6.216   9.718
   29MYC   6H15 2189   6.471   6.201   9.764
   29MYC    C20 2190   6.328   6.379   9.401
   29MYC    H34 2191   6.385   6.473   9.400
   29MYC    H35 2192   6.399   6.310   9.355
   29MYC    C21 2193   6.219   6.405   9.295
   29MYC    H36 2194   6.156   6.315   9.296
   29MYC    H37 2195   6.161   6.497   9.314
   29MYC    C22 2196   6.283   6.424   9.157
   29MYC    H38 2197   6.344   6.515   9.150
   29MYC    H39 2198   6.343   6.333   9.141
   29MYC    C23 2199   6.179   6.424   9.044
   29MYC    H40 2200   6.119   6.332   9.044
   29MYC    H41 2201   6.116   6.506   9.079
   29MYC    C24 2202   6.251   6.446   8.910
   29MYC    H42 2203   6.320   6.531   8.924
   29MYC    H43 2204   6.310   6.354   8.901
   29MYC    C25 2205   6.155   6.471   8.793
   29MYC    H44 2206   6.082   6.388   8.792
   29MYC    H45 2207   6.096   6.562   8.810
   29MYC    C26 2208   6.226   6.489   8.657
   29MYC    H46 2209   6.278   6.585   8.641
   29MYC    H47 2210   6.316   6.427   8.658
   29MYC    C27 2211   6.137   6.456   8.537
   29MYC    H48 2212   6.112   6.349   8.545
   29MYC    H49 2213   6.049   6.521   8.539
   29MYC    C28 2214   6.215   6.481   8.407
   29MYC    H50 2215   6.246   6.586   8.403
   29MYC    H51 2216   6.307   6.422   8.417
   29MYC    C29 2217   6.138   6.439   8.281
   29MYC    H52 2218   6.117   6.332   8.294
   29MYC    H53 2219   6.042   6.491   8.274
   29MYC    C30 2220   6.217   6.463   8.151
   29MYC    H54 2221   6.253   6.567   8.154
   29MYC    H55 2222   6.308   6.402   8.146
   29MYC    C31 2223   6.137   6.437   8.023
   29MYC    H56 2224   6.094   6.337   8.032
   29MYC    H57 2225   6.048   6.502   8.023
   29MYC    C32 2226   6.224   6.459   7.898
   29MYC    H58 2227   6.251   6.566   7.892
   29MYC    H59 2228   6.317   6.402   7.904
   29MYC    C33 2229   6.144   6.423   7.771
   29MYC    H60 2230   6.133   6.314   7.773
   29MYC    H61 2231   6.049   6.477   7.771
   29MYC    C34 2232   6.224   6.454   7.643
   29MYC    H62 2233   6.250   6.561   7.647
   29MYC    H63 2234   6.323   6.408   7.648
   29MYC    C35 2235   6.148   6.412   7.516
   29MYC    H64 2236   6.094   6.316   7.522
   29MYC    H65 2237   6.061   6.478   7.510
   29MYC    C36 2238   6.232   6.420   7.388
   29MYC    H66 2239   6.282   6.516   7.371
   29MYC    H67 2240   6.313   6.346   7.395
   29MYC    C37 2241   6.158   6.369   7.264
   29MYC    H68 2242   6.097   6.280   7.282
   29MYC    H69 2243   6.085   6.448   7.243
   29MYC    C38 2244   6.244   6.349   7.138
   29MYC    H70 2245   6.308   6.436   7.120
   29MYC    H71 2246   6.308   6.260   7.148
   29MYC    C39 2247   6.156   6.338   7.012
   29MYC    H72 2248   6.067   6.276   7.029
   29MYC    H73 2249   6.103   6.428   6.981
   29MYC    C40 2250   6.239   6.292   6.891
   29MYC    H74 2251   6.310   6.370   6.862
   29MYC    H75 2252   6.302   6.205   6.912
   29MYC    C41 2253   6.148   6.252   6.773
   29MYC    H76 2254   6.075   6.179   6.809
   29MYC    H77 2255   6.097   6.344   6.744
   29MYC    C42 2256   6.220   6.201   6.647
   29MYC    H78 2257   6.296   6.277   6.625
   29MYC    H79 2258   6.261   6.101   6.666
   29MYC    C43 2259   6.121   6.192   6.530
   29MYC    H80 2260   6.169   6.202   6.432
   29MYC    H81 2261   6.045   6.272   6.530
   29MYC    H82 2262   6.065   6.098   6.528
   30MYC   5H15 2263   6.288   0.780   6.650
   30MYC    C80 2264   6.352   0.788   6.739
   30MYC   3H15 2265   6.399   0.690   6.754
   30MYC   4H15 2266   6.426   0.866   6.719
   30MYC    C79 2267   6.259   0.815   6.858
   30MYC   1H15 2268   6.182   0.737   6.849
   30MYC   2H15 2269   6.214   0.915   6.854
   30MYC    C78 2270   6.334   0.803   6.992
   30MYC   9H14 2271   6.420   0.870   6.986
   30MYC   0H15 2272   6.368   0.700   7.006
   30MYC    C77 2273   6.252   0.850   7.113
   30MYC   7H14 2274   6.167   0.781   7.125
   30MYC   8H14 2275   6.214   0.953   7.105
   30MYC    C76 2276   6.337   0.843   7.241
   30MYC   5H14 2277   6.390   0.939   7.252
   30MYC   6H14 2278   6.411   0.762   7.230
   30MYC    C75 2279   6.264   0.817   7.373
   30MYC   3H14 2280   6.193   0.734   7.369
   30MYC   4H14 2281   6.200   0.904   7.391
   30MYC    C74 2282   6.359   0.798   7.493
   30MYC   1H14 2283   6.450   0.856   7.474
   30MYC   2H14 2284   6.399   0.696   7.502
   30MYC    C73 2285   6.292   0.825   7.629
   30MYC   9H13 2286   6.224   0.746   7.662
   30MYC   0H14 2287   6.236   0.920   7.624
   30MYC    C72 2288   6.397   0.835   7.741
   30MYC   7H13 2289   6.474   0.910   7.719
   30MYC   8H13 2290   6.454   0.741   7.737
   30MYC    C71 2291   6.333   0.850   7.879
   30MYC   5H13 2292   6.250   0.779   7.896
   30MYC   6H13 2293   6.300   0.953   7.895
   30MYC    C70 2294   6.427   0.825   7.998
   30MYC   3H13 2295   6.525   0.874   7.990
   30MYC   4H13 2296   6.457   0.721   7.982
   30MYC    C69 2297   6.359   0.846   8.134
   30MYC   1H13 2298   6.278   0.772   8.143
   30MYC   2H13 2299   6.308   0.943   8.131
   30MYC    C68 2300   6.451   0.854   8.257
   30MYC   9H12 2301   6.510   0.945   8.240
   30MYC   0H13 2302   6.519   0.768   8.263
   30MYC    C67 2303   6.372   0.863   8.389
   30MYC   7H12 2304   6.275   0.812   8.387
   30MYC   8H12 2305   6.347   0.969   8.396
   30MYC    C66 2306   6.459   0.820   8.509
   30MYC   5H12 2307   6.555   0.871   8.522
   30MYC   6H12 2308   6.483   0.714   8.513
   30MYC    C65 2309   6.385   0.845   8.641
   30MYC   3H12 2310   6.287   0.799   8.629
   30MYC   4H12 2311   6.369   0.952   8.659
   30MYC    C64 2312   6.470   0.792   8.758
   30MYC   1H12 2313   6.572   0.830   8.742
   30MYC   2H12 2314   6.468   0.682   8.753
   30MYC    C63 2315   6.411   0.842   8.890
   30MYC   9H11 2316   6.319   0.788   8.917
   30MYC   0H12 2317   6.386   0.949   8.887
   30MYC    C62 2318   6.509   0.827   9.008
   30MYC   7H11 2319   6.598   0.887   8.984
   30MYC   8H11 2320   6.550   0.725   9.010
   30MYC    C61 2321   6.445   0.866   9.142
   30MYC   5H11 2322   6.375   0.783   9.156
   30MYC   6H11 2323   6.391   0.961   9.142
   30MYC    C60 2324   6.545   0.878   9.256
   30MYC   4H11 2325   6.594   0.975   9.268
   30MYC    C58 2326   6.503   0.809   9.384
   30MYC   1H11 2327   6.405   0.763   9.383
   30MYC    C59 2328   6.618   0.755   9.303
   30MYC   2H11 2329   6.715   0.773   9.348
   30MYC   3H11 2330   6.602   0.658   9.256
   30MYC    C57 2331   6.530   0.889   9.511
   30MYC   9H10 2332   6.456   0.969   9.522
   30MYC   0H11 2333   6.628   0.938   9.507
   30MYC    C56 2334   6.523   0.796   9.633
   30MYC   7H10 2335   6.611   0.731   9.631
   30MYC   8H10 2336   6.433   0.734   9.630
   30MYC    C55 2337   6.519   0.871   9.768
   30MYC   5H10 2338   6.455   0.960   9.756
   30MYC   6H10 2339   6.612   0.926   9.787
   30MYC    C54 2340   6.476   0.794   9.893
   30MYC   3H10 2341   6.538   0.706   9.915
   30MYC   4H10 2342   6.377   0.752   9.869
   30MYC    C53 2343   6.481   0.874  10.024
   30MYC   1H10 2344   6.433   0.973  10.024
   30MYC   2H10 2345   6.583   0.898  10.056
   30MYC    C52 2346   6.413   0.800  10.141
   30MYC    H99 2347   6.445   0.696  10.154
   30MYC   0H10 2348   6.309   0.791  10.108
   30MYC    C51 2349   6.421   0.879  10.273
   30MYC    H97 2350   6.373   0.977  10.258
   30MYC    H98 2351   6.529   0.896  10.287
   30MYC    C50 2352   6.351   0.805  10.387
   30MYC    H95 2353   6.417   0.723  10.417
   30MYC    H96 2354   6.256   0.772  10.345
   30MYC    C49 2355   6.315   0.890  10.510
   30MYC    H93 2356   6.210   0.876  10.540
   30MYC    H94 2357   6.313   0.998  10.487
   30MYC    C48 2358   6.412   0.873  10.628
   30MYC    H91 2359   6.510   0.916  10.604
   30MYC    H92 2360   6.426   0.766  10.646
   30MYC    C47 2361   6.369   0.935  10.762
   30MYC    H89 2362   6.282   0.882  10.802
   30MYC    H90 2363   6.333   1.038  10.750
   30MYC    C46 2364   6.483   0.931  10.865
   30MYC    H87 2365   6.561   0.995  10.823
   30MYC    H88 2366   6.519   0.827  10.864
   30MYC    C45 2367   6.453   0.961  11.013
   30MYC    H85 2368   6.378   0.898  11.063
   30MYC    H86 2369   6.405   1.059  11.013
   30MYC    C44 2370   6.580   0.974  11.099
   30MYC    H83 2371   6.566   1.034  11.189
   30MYC    H84 2372   6.654   1.029  11.040
   30MYC    C18 2373   6.635   0.836  11.132
   30MYC    H31 2374   6.620   0.760  11.056
   30MYC    C17 2375   6.773   0.814  11.190
   30MYC    H30 2376   6.825   0.907  11.213
   30MYC    C19 2377   6.651   0.790  11.275
   30MYC    H32 2378   6.613   0.858  11.351
   30MYC    H33 2379   6.624   0.686  11.293
   30MYC    C16 2380   6.858   0.705  11.126
   30MYC    H28 2381   6.788   0.630  11.085
   30MYC    H29 2382   6.929   0.662  11.198
   30MYC    C15 2383   6.941   0.756  11.008
   30MYC    H26 2384   7.006   0.673  10.979
   30MYC    H27 2385   7.008   0.834  11.048
   30MYC    C14 2386   6.858   0.815  10.892
   30MYC    H24 2387   6.816   0.911  10.923
   30MYC    H25 2388   6.783   0.736  10.880
   30MYC    C13 2389   6.931   0.823  10.757
   30MYC    H22 2390   6.985   0.728  10.748
   30MYC    H23 2391   7.007   0.900  10.741
   30MYC    C12 2392   6.829   0.839  10.644
   30MYC    H20 2393   6.767   0.929  10.654
   30MYC    H21 2394   6.759   0.754  10.647
   30MYC    C11 2395   6.890   0.837  10.503
   30MYC    H18 2396   6.809   0.847  10.430
   30MYC    H19 2397   6.949   0.746  10.488
   30MYC    C10 2398   6.985   0.955  10.473
   30MYC    H16 2399   7.075   0.943  10.534
   30MYC    H17 2400   6.932   1.049  10.496
   30MYC     C9 2401   7.025   0.977  10.326
   30MYC    H14 2402   7.057   1.080  10.306
   30MYC    H15 2403   6.930   0.982  10.270
   30MYC     C8 2404   7.122   0.876  10.263
   30MYC    H12 2405   7.151   0.815  10.350
   30MYC    H13 2406   7.217   0.920  10.232
   30MYC     C7 2407   7.060   0.789  10.152
   30MYC    H10 2408   6.961   0.756  10.184
   30MYC    H11 2409   7.122   0.700  10.137
   30MYC     C6 2410   7.045   0.864  10.018
   30MYC     H8 2411   7.145   0.884   9.978
   30MYC     H9 2412   7.003   0.964  10.037
   30MYC     C5 2413   6.950   0.800   9.916
   30MYC     H6 2414   6.872   0.875   9.896
   30MYC     H7 2415   6.895   0.723   9.971
   30MYC     C4 2416   7.010   0.738   9.789
   30MYC     H4 2417   6.928   0.682   9.743
   30MYC     H5 2418   7.088   0.667   9.816
   30MYC     C2 2419   7.082   0.837   9.695
   30MYC     H2 2420   7.029   0.932   9.688
   30MYC     O3 2421   7.211   0.869   9.745
   30MYC     H3 2422   7.277   0.831   9.685
   30MYC     C1 2423   7.087   0.786   9.549
   30MYC     H1 2424   6.982   0.774   9.522
   30MYC    C81 2425   7.148   0.647   9.536
   30MYC    O82 2426   7.266   0.635   9.509
   30MYC    O83 2427   7.064   0.547   9.501
   30MYC   6H15 2428   7.112   0.469   9.468
   30MYC    C20 2429   7.147   0.893   9.456
   30MYC    H34 2430   7.144   0.986   9.513
   30MYC    H35 2431   7.255   0.872   9.445
   30MYC    C21 2432   7.080   0.906   9.318
   30MYC    H36 2433   6.982   0.954   9.314
   30MYC    H37 2434   7.138   0.977   9.260
   30MYC    C22 2435   7.078   0.773   9.240
   30MYC    H38 2436   7.179   0.735   9.217
   30MYC    H39 2437   7.031   0.699   9.305
   30MYC    C23 2438   6.996   0.786   9.111
   30MYC    H40 2439   6.891   0.802   9.138
   30MYC    H41 2440   7.021   0.865   9.039
   30MYC    C24 2441   6.993   0.659   9.024
   30MYC    H42 2442   7.094   0.632   8.993
   30MYC    H43 2443   6.952   0.577   9.084
   30MYC    C25 2444   6.899   0.681   8.904
   30MYC    H44 2445   6.860   0.584   8.872
   30MYC    H45 2446   6.812   0.734   8.947
   30MYC    C26 2447   6.962   0.750   8.782
   30MYC    H46 2448   6.992   0.852   8.811
   30MYC    H47 2449   7.056   0.698   8.760
   30MYC    C27 2450   6.865   0.757   8.663
   30MYC    H48 2451   6.765   0.718   8.684
   30MYC    H49 2452   6.837   0.862   8.649
   30MYC    C28 2453   6.909   0.685   8.534
   30MYC    H50 2454   7.005   0.731   8.507
   30MYC    H51 2455   6.913   0.578   8.558
   30MYC    C29 2456   6.815   0.707   8.415
   30MYC    H52 2457   6.717   0.660   8.430
   30MYC    H53 2458   6.793   0.815   8.410
   30MYC    C30 2459   6.882   0.648   8.290
   30MYC    H54 2460   6.988   0.676   8.281
   30MYC    H55 2461   6.869   0.539   8.285
   30MYC    C31 2462   6.807   0.706   8.169
   30MYC    H56 2463   6.704   0.669   8.179
   30MYC    H57 2464   6.804   0.816   8.162
   30MYC    C32 2465   6.870   0.653   8.039
   30MYC    H58 2466   6.968   0.701   8.031
   30MYC    H59 2467   6.883   0.544   8.038
   30MYC    C33 2468   6.794   0.700   7.914
   30MYC    H60 2469   6.692   0.658   7.912
   30MYC    H61 2470   6.780   0.809   7.912
   30MYC    C34 2471   6.864   0.650   7.787
   30MYC    H62 2472   6.960   0.700   7.772
   30MYC    H63 2473   6.896   0.546   7.795
   30MYC    C35 2474   6.804   0.671   7.647
   30MYC    H64 2475   6.713   0.610   7.643
   30MYC    H65 2476   6.779   0.776   7.631
   30MYC    C36 2477   6.896   0.628   7.531
   30MYC    H66 2478   6.994   0.676   7.525
   30MYC    H67 2479   6.918   0.521   7.538
   30MYC    C37 2480   6.827   0.643   7.394
   30MYC    H68 2481   6.725   0.603   7.403
   30MYC    H69 2482   6.814   0.750   7.375
   30MYC    C38 2483   6.899   0.573   7.278
   30MYC    H70 2484   7.003   0.608   7.277
   30MYC    H71 2485   6.883   0.465   7.282
   30MYC    C39 2486   6.836   0.620   7.145
   30MYC    H72 2487   6.729   0.600   7.149
   30MYC    H73 2488   6.851   0.727   7.125
   30MYC    C40 2489   6.889   0.541   7.024
   30MYC    H74 2490   6.996   0.530   7.043
   30MYC    H75 2491   6.851   0.441   7.001
   30MYC    C41 2492   6.881   0.621   6.893
   30MYC    H76 2493   6.775   0.641   6.872
   30MYC    H77 2494   6.945   0.710   6.888
   30MYC    C42 2495   6.948   0.539   6.781
   30MYC    H78 2496   7.057   0.536   6.795
   30MYC    H79 2497   6.909   0.436   6.787
   30MYC    C43 2498   6.913   0.598   6.643
   30MYC    H80 2499   6.976   0.547   6.569
   30MYC    H81 2500   6.942   0.703   6.653
   30MYC    H82 2501   6.806   0.586   6.628
   31MYC   5H15 2502   0.935   0.862   6.677
   31MYC    C80 2503   0.956   0.806   6.769
   31MYC   3H15 2504   0.929   0.700   6.760
   31MYC   4H15 2505   1.062   0.820   6.791
   31MYC    C79 2506   0.869   0.861   6.883
   31MYC   1H15 2507   0.764   0.845   6.854
   31MYC   2H15 2508   0.888   0.969   6.884
   31MYC    C78 2509   0.895   0.785   7.014
   31MYC   9H14 2510   1.002   0.801   7.035
   31MYC   0H15 2511   0.874   0.678   7.003
   31MYC    C77 2512   0.798   0.820   7.127
   31MYC   7H14 2513   0.701   0.772   7.109
   31MYC   8H14 2514   0.779   0.928   7.136
   31MYC    C76 2515   0.845   0.784   7.269
   31MYC   5H14 2516   0.947   0.822   7.284
   31MYC   6H14 2517   0.840   0.674   7.275
   31MYC    C75 2518   0.755   0.846   7.377
   31MYC   3H14 2519   0.654   0.805   7.365
   31MYC   4H14 2520   0.748   0.956   7.383
   31MYC    C74 2521   0.822   0.813   7.511
   31MYC   1H14 2522   0.929   0.833   7.510
   31MYC   2H14 2523   0.810   0.706   7.531
   31MYC    C73 2524   0.769   0.880   7.640
   31MYC   9H13 2525   0.660   0.865   7.638
   31MYC   0H14 2526   0.780   0.989   7.636
   31MYC    C72 2527   0.818   0.808   7.767
   31MYC   7H13 2528   0.926   0.825   7.765
   31MYC   8H13 2529   0.803   0.700   7.767
   31MYC    C71 2530   0.758   0.871   7.894
   31MYC   5H13 2531   0.648   0.864   7.896
   31MYC   6H13 2532   0.781   0.977   7.901
   31MYC    C70 2533   0.814   0.811   8.024
   31MYC   3H13 2534   0.922   0.814   8.010
   31MYC   4H13 2535   0.778   0.709   8.045
   31MYC    C69 2536   0.785   0.902   8.145
   31MYC   1H13 2537   0.682   0.895   8.181
   31MYC   2H13 2538   0.797   1.007   8.115
   31MYC    C68 2539   0.884   0.863   8.256
   31MYC   9H12 2540   0.980   0.916   8.245
   31MYC   0H13 2541   0.909   0.757   8.243
   31MYC    C67 2542   0.830   0.883   8.398
   31MYC   7H12 2543   0.736   0.826   8.404
   31MYC   8H12 2544   0.811   0.989   8.418
   31MYC    C66 2545   0.923   0.833   8.509
   31MYC   5H12 2546   1.018   0.887   8.501
   31MYC   6H12 2547   0.946   0.728   8.488
   31MYC    C65 2548   0.882   0.854   8.656
   31MYC   3H12 2549   0.811   0.773   8.673
   31MYC   4H12 2550   0.836   0.953   8.661
   31MYC    C64 2551   1.009   0.851   8.743
   31MYC   1H12 2552   1.065   0.943   8.718
   31MYC   2H12 2553   1.073   0.765   8.721
   31MYC    C63 2554   0.972   0.856   8.892
   31MYC   9H11 2555   0.927   0.758   8.913
   31MYC   0H12 2556   0.889   0.927   8.899
   31MYC    C62 2557   1.098   0.882   8.976
   31MYC   7H11 2558   1.138   0.984   8.973
   31MYC   8H11 2559   1.180   0.823   8.935
   31MYC    C61 2560   1.078   0.853   9.126
   31MYC   5H11 2561   1.079   0.744   9.140
   31MYC   6H11 2562   0.982   0.890   9.165
   31MYC    C60 2563   1.190   0.900   9.218
   31MYC   4H11 2564   1.204   1.008   9.219
   31MYC    C58 2565   1.254   0.824   9.331
   31MYC   1H11 2566   1.205   0.728   9.347
   31MYC    C59 2567   1.324   0.834   9.199
   31MYC   2H11 2568   1.411   0.899   9.209
   31MYC   3H11 2569   1.336   0.742   9.141
   31MYC    C57 2570   1.289   0.892   9.463
   31MYC   9H10 2571   1.261   0.997   9.452
   31MYC   0H11 2572   1.396   0.891   9.483
   31MYC    C56 2573   1.211   0.833   9.582
   31MYC   7H10 2574   1.249   0.731   9.591
   31MYC   8H10 2575   1.103   0.826   9.568
   31MYC    C55 2576   1.227   0.915   9.712
   31MYC   5H10 2577   1.184   1.015   9.700
   31MYC   6H10 2578   1.333   0.927   9.737
   31MYC    C54 2579   1.153   0.844   9.827
   31MYC   3H10 2580   1.180   0.738   9.828
   31MYC   4H10 2581   1.045   0.848   9.811
   31MYC    C53 2582   1.175   0.910   9.964
   31MYC   1H10 2583   1.130   1.010   9.964
   31MYC   2H10 2584   1.282   0.921   9.986
   31MYC    C52 2585   1.123   0.821  10.078
   31MYC    H99 2586   1.181   0.728  10.074
   31MYC   0H10 2587   1.018   0.797  10.056
   31MYC    C51 2588   1.116   0.894  10.213
   31MYC    H97 2589   1.056   0.985  10.200
   31MYC    H98 2590   1.221   0.913  10.238
   31MYC    C50 2591   1.065   0.805  10.328
   31MYC    H95 2592   1.144   0.730  10.339
   31MYC    H96 2593   0.973   0.749  10.308
   31MYC    C49 2594   1.036   0.887  10.455
   31MYC    H93 2595   0.940   0.939  10.446
   31MYC    H94 2596   1.114   0.961  10.475
   31MYC    C48 2597   1.030   0.796  10.579
   31MYC    H91 2598   1.129   0.771  10.620
   31MYC    H92 2599   0.979   0.700  10.562
   31MYC    C47 2600   0.962   0.858  10.702
   31MYC    H89 2601   0.855   0.855  10.676
   31MYC    H90 2602   0.987   0.965  10.699
   31MYC    C46 2603   0.993   0.789  10.835
   31MYC    H87 2604   1.099   0.805  10.856
   31MYC    H88 2605   0.973   0.681  10.832
   31MYC    C45 2606   0.903   0.845  10.947
   31MYC    H85 2607   0.810   0.789  10.958
   31MYC    H86 2608   0.874   0.948  10.925
   31MYC    C44 2609   0.981   0.845  11.080
   31MYC    H83 2610   0.934   0.920  11.145
   31MYC    H84 2611   1.084   0.877  11.058
   31MYC    C18 2612   0.970   0.710  11.148
   31MYC    H31 2613   0.895   0.641  11.110
   31MYC    C17 2614   1.100   0.648  11.194
   31MYC    H30 2615   1.190   0.702  11.167
   31MYC    C19 2616   1.004   0.707  11.295
   31MYC    H32 2617   1.037   0.801  11.338
   31MYC    H33 2618   0.942   0.638  11.352
   31MYC    C16 2619   1.121   0.497  11.184
   31MYC    H28 2620   1.034   0.436  11.157
   31MYC    H29 2621   1.142   0.457  11.283
   31MYC    C15 2622   1.241   0.467  11.093
   31MYC    H26 2623   1.287   0.372  11.124
   31MYC    H27 2624   1.319   0.545  11.098
   31MYC    C14 2625   1.184   0.468  10.950
   31MYC    H24 2626   1.164   0.568  10.911
   31MYC    H25 2627   1.095   0.407  10.930
   31MYC    C13 2628   1.279   0.409  10.844
   31MYC    H22 2629   1.318   0.311  10.872
   31MYC    H23 2630   1.361   0.481  10.833
   31MYC    C12 2631   1.215   0.393  10.705
   31MYC    H20 2632   1.192   0.493  10.667
   31MYC    H21 2633   1.119   0.341  10.715
   31MYC    C11 2634   1.310   0.309  10.618
   31MYC    H18 2635   1.302   0.200  10.630
   31MYC    H19 2636   1.415   0.326  10.648
   31MYC    C10 2637   1.308   0.344  10.468
   31MYC    H16 2638   1.388   0.288  10.418
   31MYC    H17 2639   1.335   0.446  10.438
   31MYC     C9 2640   1.182   0.308  10.389
   31MYC    H14 2641   1.092   0.333  10.448
   31MYC    H15 2642   1.170   0.201  10.367
   31MYC     C8 2643   1.166   0.381  10.255
   31MYC    H12 2644   1.256   0.380  10.191
   31MYC    H13 2645   1.158   0.488  10.276
   31MYC     C7 2646   1.046   0.325  10.177
   31MYC    H10 2647   0.964   0.313  10.249
   31MYC    H11 2648   1.074   0.226  10.140
   31MYC     C6 2649   0.999   0.419  10.065
   31MYC     H8 2650   1.090   0.473  10.035
   31MYC     H9 2651   0.943   0.502  10.109
   31MYC     C5 2652   0.925   0.349   9.950
   31MYC     H6 2653   0.873   0.428   9.895
   31MYC     H7 2654   0.856   0.273   9.990
   31MYC     C4 2655   1.027   0.271   9.866
   31MYC     H4 2656   0.981   0.177   9.834
   31MYC     H5 2657   1.106   0.231   9.931
   31MYC     C2 2658   1.083   0.355   9.750
   31MYC     H2 2659   1.005   0.359   9.673
   31MYC     O3 2660   1.119   0.487   9.786
   31MYC     H3 2661   1.211   0.494   9.817
   31MYC     C1 2662   1.201   0.274   9.692
   31MYC     H1 2663   1.176   0.171   9.665
   31MYC    C81 2664   1.323   0.272   9.784
   31MYC    O82 2665   1.417   0.349   9.782
   31MYC    O83 2666   1.326   0.162   9.863
   31MYC   6H15 2667   1.410   0.175   9.911
   31MYC    C20 2668   1.243   0.328   9.554
   31MYC    H34 2669   1.260   0.435   9.568
   31MYC    H35 2670   1.332   0.277   9.516
   31MYC    C21 2671   1.132   0.325   9.447
   31MYC    H36 2672   1.089   0.225   9.439
   31MYC    H37 2673   1.058   0.399   9.479
   31MYC    C22 2674   1.193   0.349   9.308
   31MYC    H38 2675   1.234   0.449   9.293
   31MYC    H39 2676   1.274   0.276   9.297
   31MYC    C23 2677   1.093   0.331   9.192
   31MYC    H40 2678   1.044   0.233   9.202
   31MYC    H41 2679   1.014   0.408   9.198
   31MYC    C24 2680   1.155   0.339   9.052
   31MYC    H42 2681   1.218   0.429   9.046
   31MYC    H43 2682   1.221   0.252   9.049
   31MYC    C25 2683   1.063   0.343   8.928
   31MYC    H44 2684   0.984   0.268   8.938
   31MYC    H45 2685   1.021   0.444   8.927
   31MYC    C26 2686   1.131   0.311   8.794
   31MYC    H46 2687   1.219   0.375   8.779
   31MYC    H47 2688   1.169   0.208   8.797
   31MYC    C27 2689   1.032   0.347   8.682
   31MYC    H48 2690   0.947   0.278   8.689
   31MYC    H49 2691   1.006   0.452   8.694
   31MYC    C28 2692   1.103   0.332   8.547
   31MYC    H50 2693   1.191   0.397   8.549
   31MYC    H51 2694   1.135   0.227   8.540
   31MYC    C29 2695   1.007   0.365   8.431
   31MYC    H52 2696   0.942   0.278   8.429
   31MYC    H53 2697   0.953   0.460   8.441
   31MYC    C30 2698   1.087   0.366   8.300
   31MYC    H54 2699   1.175   0.431   8.309
   31MYC    H55 2700   1.135   0.268   8.302
   31MYC    C31 2701   1.014   0.403   8.170
   31MYC    H56 2702   0.923   0.344   8.183
   31MYC    H57 2703   0.978   0.507   8.170
   31MYC    C32 2704   1.091   0.375   8.040
   31MYC    H58 2705   1.188   0.426   8.039
   31MYC    H59 2706   1.108   0.267   8.052
   31MYC    C33 2707   1.011   0.411   7.913
   31MYC    H60 2708   0.914   0.360   7.909
   31MYC    H61 2709   0.980   0.516   7.916
   31MYC    C34 2710   1.085   0.390   7.780
   31MYC    H62 2711   1.189   0.424   7.791
   31MYC    H63 2712   1.087   0.282   7.761
   31MYC    C35 2713   1.026   0.456   7.654
   31MYC    H64 2714   0.918   0.440   7.640
   31MYC    H65 2715   1.025   0.565   7.668
   31MYC    C36 2716   1.110   0.418   7.531
   31MYC    H66 2717   1.201   0.479   7.532
   31MYC    H67 2718   1.143   0.314   7.530
   31MYC    C37 2719   1.044   0.457   7.398
   31MYC    H68 2720   0.949   0.407   7.377
   31MYC    H69 2721   1.044   0.566   7.383
   31MYC    C38 2722   1.130   0.405   7.281
   31MYC    H70 2723   1.233   0.440   7.287
   31MYC    H71 2724   1.132   0.296   7.276
   31MYC    C39 2725   1.074   0.458   7.147
   31MYC    H72 2726   0.978   0.417   7.115
   31MYC    H73 2727   1.061   0.566   7.159
   31MYC    C40 2728   1.171   0.427   7.032
   31MYC    H74 2729   1.273   0.453   7.065
   31MYC    H75 2730   1.165   0.319   7.016
   31MYC    C41 2731   1.129   0.495   6.901
   31MYC    H76 2732   1.020   0.489   6.890
   31MYC    H77 2733   1.137   0.602   6.920
   31MYC    C42 2734   1.212   0.440   6.784
   31MYC    H78 2735   1.320   0.448   6.803
   31MYC    H79 2736   1.191   0.333   6.766
   31MYC    C43 2737   1.180   0.510   6.651
   31MYC    H80 2738   1.210   0.449   6.564
   31MYC    H81 2739   1.228   0.608   6.660
   31MYC    H82 2740   1.071   0.519   6.647
   32MYC   5H15 2741   1.551   0.705   6.673
   32MYC    C80 2742   1.629   0.704   6.751
   32MYC   3H15 2743   1.724   0.661   6.716
   32MYC   4H15 2744   1.635   0.808   6.784
   32MYC    C79 2745   1.598   0.604   6.863
   32MYC   1H15 2746   1.580   0.505   6.820
   32MYC   2H15 2747   1.500   0.628   6.906
   32MYC    C78 2748   1.704   0.603   6.975
   32MYC   9H14 2749   1.705   0.703   7.020
   32MYC   0H15 2750   1.800   0.583   6.926
   32MYC    C77 2751   1.681   0.497   7.085
   32MYC   7H14 2752   1.728   0.404   7.052
   32MYC   8H14 2753   1.575   0.476   7.104
   32MYC    C76 2754   1.745   0.549   7.215
   32MYC   5H14 2755   1.700   0.646   7.239
   32MYC   6H14 2756   1.852   0.564   7.197
   32MYC    C75 2757   1.719   0.451   7.330
   32MYC   3H14 2758   1.764   0.351   7.317
   32MYC   4H14 2759   1.614   0.420   7.331
   32MYC    C74 2760   1.759   0.517   7.463
   32MYC   1H14 2761   1.734   0.623   7.446
   32MYC   2H14 2762   1.865   0.503   7.486
   32MYC    C73 2763   1.673   0.478   7.585
   32MYC   9H13 2764   1.702   0.373   7.599
   32MYC   0H14 2765   1.570   0.478   7.547
   32MYC    C72 2766   1.694   0.566   7.710
   32MYC   7H13 2767   1.650   0.664   7.686
   32MYC   8H13 2768   1.798   0.575   7.743
   32MYC    C71 2769   1.610   0.506   7.824
   32MYC   5H13 2770   1.654   0.407   7.842
   32MYC   6H13 2771   1.506   0.489   7.792
   32MYC    C70 2772   1.615   0.595   7.949
   32MYC   3H13 2773   1.544   0.678   7.952
   32MYC   4H13 2774   1.718   0.630   7.966
   32MYC    C69 2775   1.568   0.509   8.067
   32MYC   1H13 2776   1.647   0.434   8.081
   32MYC   2H13 2777   1.473   0.459   8.042
   32MYC    C68 2778   1.551   0.592   8.195
   32MYC   9H12 2779   1.454   0.644   8.193
   32MYC   0H13 2780   1.632   0.664   8.208
   32MYC    C67 2781   1.536   0.502   8.320
   32MYC   7H12 2782   1.612   0.425   8.330
   32MYC   8H12 2783   1.444   0.445   8.305
   32MYC    C66 2784   1.520   0.587   8.447
   32MYC   5H12 2785   1.416   0.624   8.452
   32MYC   6H12 2786   1.587   0.673   8.453
   32MYC    C65 2787   1.545   0.511   8.578
   32MYC   3H12 2788   1.645   0.468   8.569
   32MYC   4H12 2789   1.479   0.423   8.585
   32MYC    C64 2790   1.537   0.589   8.710
   32MYC   1H12 2791   1.441   0.643   8.711
   32MYC   2H12 2792   1.617   0.664   8.708
   32MYC    C63 2793   1.561   0.497   8.831
   32MYC   9H11 2794   1.641   0.426   8.804
   32MYC   0H12 2795   1.476   0.430   8.849
   32MYC    C62 2796   1.588   0.572   8.962
   32MYC   7H11 2797   1.500   0.622   9.003
   32MYC   8H11 2798   1.663   0.649   8.944
   32MYC    C61 2799   1.633   0.470   9.068
   32MYC   5H11 2800   1.734   0.434   9.043
   32MYC   6H11 2801   1.573   0.378   9.066
   32MYC    C60 2802   1.640   0.525   9.210
   32MYC   4H11 2803   1.668   0.629   9.194
   32MYC    C58 2804   1.555   0.474   9.323
   32MYC   1H11 2805   1.484   0.393   9.308
   32MYC    C59 2806   1.701   0.435   9.314
   32MYC   2H11 2807   1.769   0.478   9.387
   32MYC   3H11 2808   1.738   0.341   9.273
   32MYC    C57 2809   1.505   0.570   9.430
   32MYC   9H10 2810   1.399   0.555   9.456
   32MYC   0H11 2811   1.498   0.664   9.372
   32MYC    C56 2812   1.589   0.582   9.558
   32MYC   7H10 2813   1.680   0.639   9.536
   32MYC   8H10 2814   1.611   0.478   9.586
   32MYC    C55 2815   1.518   0.647   9.678
   32MYC   5H10 2816   1.415   0.609   9.681
   32MYC   6H10 2817   1.513   0.754   9.657
   32MYC    C54 2818   1.590   0.635   9.813
   32MYC   3H10 2819   1.691   0.680   9.808
   32MYC   4H10 2820   1.613   0.532   9.841
   32MYC    C53 2821   1.505   0.699   9.924
   32MYC   1H10 2822   1.407   0.651   9.937
   32MYC   2H10 2823   1.476   0.801   9.895
   32MYC    C52 2824   1.570   0.703  10.063
   32MYC    H99 2825   1.663   0.758  10.044
   32MYC   0H10 2826   1.604   0.604  10.093
   32MYC    C51 2827   1.493   0.786  10.167
   32MYC    H97 2828   1.390   0.752  10.186
   32MYC    H98 2829   1.468   0.879  10.116
   32MYC    C50 2830   1.569   0.797  10.301
   32MYC    H95 2831   1.666   0.848  10.294
   32MYC    H96 2832   1.586   0.702  10.352
   32MYC    C49 2833   1.488   0.886  10.397
   32MYC    H93 2834   1.392   0.839  10.421
   32MYC    H94 2835   1.473   0.987  10.360
   32MYC    C48 2836   1.568   0.904  10.528
   32MYC    H91 2837   1.647   0.976  10.505
   32MYC    H92 2838   1.617   0.812  10.560
   32MYC    C47 2839   1.483   0.946  10.649
   32MYC    H89 2840   1.407   0.869  10.666
   32MYC    H90 2841   1.436   1.042  10.623
   32MYC    C46 2842   1.564   0.945  10.779
   32MYC    H87 2843   1.653   1.008  10.767
   32MYC    H88 2844   1.605   0.846  10.802
   32MYC    C45 2845   1.470   0.982  10.895
   32MYC    H85 2846   1.388   0.910  10.910
   32MYC    H86 2847   1.422   1.072  10.855
   32MYC    C44 2848   1.539   1.018  11.027
   32MYC    H83 2849   1.468   1.061  11.099
   32MYC    H84 2850   1.603   1.106  11.018
   32MYC    C18 2851   1.608   0.904  11.100
   32MYC    H31 2852   1.546   0.820  11.128
   32MYC    C17 2853   1.751   0.862  11.075
   32MYC    H30 2854   1.808   0.926  11.008
   32MYC    C19 2855   1.715   0.934  11.202
   32MYC    H32 2856   1.746   1.037  11.215
   32MYC    H33 2857   1.714   0.876  11.294
   32MYC    C16 2858   1.792   0.715  11.078
   32MYC    H28 2859   1.724   0.649  11.023
   32MYC    H29 2860   1.787   0.682  11.182
   32MYC    C15 2861   1.933   0.683  11.026
   32MYC    H26 2862   1.969   0.583  11.055
   32MYC    H27 2863   1.995   0.760  11.074
   32MYC    C14 2864   1.947   0.682  10.873
   32MYC    H24 2865   1.917   0.779  10.830
   32MYC    H25 2866   1.876   0.613  10.824
   32MYC    C13 2867   2.090   0.638  10.838
   32MYC    H22 2868   2.129   0.542  10.873
   32MYC    H23 2869   2.147   0.707  10.901
   32MYC    C12 2870   2.124   0.665  10.690
   32MYC    H20 2871   2.138   0.773  10.678
   32MYC    H21 2872   2.050   0.620  10.623
   32MYC    C11 2873   2.261   0.606  10.653
   32MYC    H18 2874   2.265   0.498  10.669
   32MYC    H19 2875   2.336   0.650  10.720
   32MYC    C10 2876   2.308   0.640  10.510
   32MYC    H16 2877   2.397   0.580  10.485
   32MYC    H17 2878   2.335   0.746  10.503
   32MYC     C9 2879   2.197   0.609  10.409
   32MYC    H14 2880   2.108   0.673  10.420
   32MYC    H15 2881   2.171   0.503  10.418
   32MYC     C8 2882   2.245   0.638  10.265
   32MYC    H12 2883   2.338   0.582  10.245
   32MYC    H13 2884   2.263   0.744  10.241
   32MYC     C7 2885   2.134   0.606  10.164
   32MYC    H10 2886   2.063   0.689  10.158
   32MYC    H11 2887   2.080   0.514  10.191
   32MYC     C6 2888   2.204   0.591  10.027
   32MYC     H8 2889   2.295   0.531  10.040
   32MYC     H9 2890   2.242   0.688   9.994
   32MYC     C5 2891   2.119   0.529   9.915
   32MYC     H6 2892   2.060   0.609   9.868
   32MYC     H7 2893   2.052   0.457   9.964
   32MYC     C4 2894   2.205   0.460   9.808
   32MYC     H4 2895   2.152   0.378   9.759
   32MYC     H5 2896   2.287   0.415   9.865
   32MYC     C2 2897   2.245   0.557   9.696
   32MYC     H2 2898   2.162   0.564   9.625
   32MYC     O3 2899   2.276   0.689   9.740
   32MYC     H3 2900   2.345   0.687   9.808
   32MYC     C1 2901   2.363   0.504   9.613
   32MYC     H1 2902   2.354   0.395   9.598
   32MYC    C81 2903   2.501   0.519   9.675
   32MYC    O82 2904   2.606   0.496   9.617
   32MYC    O83 2905   2.498   0.524   9.810
   32MYC   6H15 2906   2.583   0.488   9.840
   32MYC    C20 2907   2.381   0.571   9.476
   32MYC    H34 2908   2.421   0.672   9.496
   32MYC    H35 2909   2.449   0.512   9.414
   32MYC    C21 2910   2.265   0.601   9.379
   32MYC    H36 2911   2.206   0.509   9.366
   32MYC    H37 2912   2.195   0.667   9.432
   32MYC    C22 2913   2.308   0.654   9.242
   32MYC    H38 2914   2.298   0.763   9.232
   32MYC    H39 2915   2.417   0.645   9.233
   32MYC    C23 2916   2.237   0.598   9.118
   32MYC    H40 2917   2.283   0.501   9.099
   32MYC    H41 2918   2.129   0.592   9.139
   32MYC    C24 2919   2.257   0.688   8.994
   32MYC    H42 2920   2.186   0.771   8.995
   32MYC    H43 2921   2.354   0.737   9.012
   32MYC    C25 2922   2.251   0.621   8.856
   32MYC    H44 2923   2.330   0.545   8.848
   32MYC    H45 2924   2.160   0.558   8.857
   32MYC    C26 2925   2.243   0.715   8.735
   32MYC    H46 2926   2.160   0.784   8.754
   32MYC    H47 2927   2.343   0.758   8.725
   32MYC    C27 2928   2.214   0.638   8.605
   32MYC    H48 2929   2.282   0.551   8.612
   32MYC    H49 2930   2.111   0.602   8.606
   32MYC    C28 2931   2.247   0.730   8.486
   32MYC    H50 2932   2.191   0.822   8.507
   32MYC    H51 2933   2.355   0.743   8.480
   32MYC    C29 2934   2.191   0.669   8.356
   32MYC    H52 2935   2.249   0.580   8.329
   32MYC    H53 2936   2.088   0.638   8.374
   32MYC    C30 2937   2.205   0.773   8.243
   32MYC    H54 2938   2.153   0.868   8.262
   32MYC    H55 2939   2.311   0.799   8.230
   32MYC    C31 2940   2.168   0.712   8.107
   32MYC    H56 2941   2.208   0.611   8.091
   32MYC    H57 2942   2.061   0.690   8.111
   32MYC    C32 2943   2.197   0.797   7.981
   32MYC    H58 2944   2.133   0.886   7.988
   32MYC    H59 2945   2.301   0.828   7.991
   32MYC    C33 2946   2.167   0.730   7.846
   32MYC    H60 2947   2.234   0.644   7.832
   32MYC    H61 2948   2.070   0.682   7.867
   32MYC    C34 2949   2.162   0.825   7.725
   32MYC    H62 2950   2.101   0.915   7.741
   32MYC    H63 2951   2.265   0.860   7.709
   32MYC    C35 2952   2.121   0.749   7.598
   32MYC    H64 2953   2.190   0.666   7.579
   32MYC    H65 2954   2.026   0.695   7.608
   32MYC    C36 2955   2.118   0.839   7.474
   32MYC    H66 2956   2.016   0.877   7.458
   32MYC    H67 2957   2.193   0.919   7.484
   32MYC    C37 2958   2.160   0.751   7.355
   32MYC    H68 2959   2.264   0.718   7.365
   32MYC    H69 2960   2.101   0.660   7.369
   32MYC    C38 2961   2.122   0.804   7.215
   32MYC    H70 2962   2.014   0.787   7.199
   32MYC    H71 2963   2.128   0.913   7.203
   32MYC    C39 2964   2.199   0.746   7.096
   32MYC    H72 2965   2.307   0.767   7.096
   32MYC    H73 2966   2.187   0.638   7.110
   32MYC    C40 2967   2.134   0.772   6.959
   32MYC    H74 2968   2.030   0.739   6.973
   32MYC    H75 2969   2.137   0.880   6.938
   32MYC    C41 2970   2.202   0.707   6.837
   32MYC    H76 2971   2.303   0.747   6.822
   32MYC    H77 2972   2.209   0.598   6.847
   32MYC    C42 2973   2.129   0.726   6.704
   32MYC    H78 2974   2.024   0.695   6.719
   32MYC    H79 2975   2.130   0.832   6.677
   32MYC    C43 2976   2.182   0.642   6.587
   32MYC    H80 2977   2.140   0.661   6.487
   32MYC    H81 2978   2.168   0.536   6.612
   32MYC    H82 2979   2.291   0.649   6.580
   33MYC   5H15 2980   3.339   0.546   6.623
   33MYC    C80 2981   3.266   0.552   6.704
   33MYC   3H15 2982   3.222   0.652   6.697
   33MYC   4H15 2983   3.191   0.475   6.681
   33MYC    C79 2984   3.343   0.535   6.836
   33MYC   1H15 2985   3.425   0.607   6.827
   33MYC   2H15 2986   3.385   0.433   6.839
   33MYC    C78 2987   3.265   0.573   6.963
   33MYC   9H14 2988   3.172   0.516   6.976
   33MYC   0H15 2989   3.228   0.676   6.965
   33MYC    C77 2990   3.359   0.559   7.083
   33MYC   7H14 2991   3.451   0.619   7.077
   33MYC   8H14 2992   3.396   0.455   7.078
   33MYC    C76 2993   3.300   0.599   7.219
   33MYC   5H14 2994   3.197   0.562   7.228
   33MYC   6H14 2995   3.297   0.709   7.225
   33MYC    C75 2996   3.382   0.547   7.338
   33MYC   3H14 2997   3.466   0.616   7.352
   33MYC   4H14 2998   3.433   0.452   7.317
   33MYC    C74 2999   3.298   0.560   7.466
   33MYC   1H14 3000   3.217   0.485   7.466
   33MYC   2H14 3001   3.244   0.656   7.468
   33MYC    C73 3002   3.374   0.544   7.599
   33MYC   9H13 3003   3.460   0.612   7.607
   33MYC   0H14 3004   3.426   0.448   7.596
   33MYC    C72 3005   3.284   0.545   7.723
   33MYC   7H13 3006   3.215   0.461   7.714
   33MYC   8H13 3007   3.215   0.631   7.723
   33MYC    C71 3008   3.352   0.524   7.859
   33MYC   5H13 3009   3.412   0.614   7.875
   33MYC   6H13 3010   3.434   0.452   7.863
   33MYC    C70 3011   3.256   0.502   7.978
   33MYC   3H13 3012   3.190   0.414   7.967
   33MYC   4H13 3013   3.183   0.584   7.975
   33MYC    C69 3014   3.325   0.508   8.115
   33MYC   1H13 3015   3.398   0.589   8.123
   33MYC   2H13 3016   3.382   0.416   8.134
   33MYC    C68 3017   3.220   0.531   8.225
   33MYC   9H12 3018   3.131   0.466   8.231
   33MYC   0H13 3019   3.185   0.630   8.193
   33MYC    C67 3020   3.286   0.525   8.364
   33MYC   7H12 3021   3.343   0.619   8.362
   33MYC   8H12 3022   3.346   0.434   8.378
   33MYC    C66 3023   3.183   0.537   8.477
   33MYC   5H12 3024   3.133   0.442   8.498
   33MYC   6H12 3025   3.103   0.610   8.456
   33MYC    C65 3026   3.246   0.576   8.612
   33MYC   3H12 3027   3.297   0.671   8.595
   33MYC   4H12 3028   3.325   0.501   8.623
   33MYC    C64 3029   3.155   0.598   8.734
   33MYC   1H12 3030   3.118   0.503   8.775
   33MYC   2H12 3031   3.059   0.645   8.707
   33MYC    C63 3032   3.224   0.676   8.846
   33MYC   9H11 3033   3.246   0.779   8.814
   33MYC   0H12 3034   3.321   0.628   8.868
   33MYC    C62 3035   3.137   0.677   8.973
   33MYC   7H11 3036   3.163   0.586   9.027
   33MYC   8H11 3037   3.031   0.675   8.944
   33MYC    C61 3038   3.157   0.805   9.056
   33MYC   5H11 3039   3.120   0.893   9.000
   33MYC   6H11 3040   3.266   0.821   9.059
   33MYC    C60 3041   3.094   0.801   9.194
   33MYC   4H11 3042   2.995   0.758   9.184
   33MYC    C58 3043   3.182   0.776   9.314
   33MYC   1H11 3044   3.290   0.773   9.302
   33MYC    C59 3045   3.123   0.913   9.291
   33MYC   2H11 3046   3.046   0.945   9.359
   33MYC   3H11 3047   3.200   0.990   9.278
   33MYC    C57 3048   3.129   0.699   9.434
   33MYC   9H10 3049   3.154   0.595   9.410
   33MYC   0H11 3050   3.019   0.704   9.437
   33MYC    C56 3051   3.198   0.739   9.565
   33MYC   7H10 3052   3.178   0.845   9.587
   33MYC   8H10 3053   3.307   0.733   9.563
   33MYC    C55 3054   3.135   0.658   9.680
   33MYC   5H10 3055   3.132   0.553   9.648
   33MYC   6H10 3056   3.032   0.695   9.685
   33MYC    C54 3057   3.197   0.674   9.820
   33MYC   3H10 3058   3.189   0.777   9.857
   33MYC   4H10 3059   3.304   0.652   9.819
   33MYC    C53 3060   3.131   0.585   9.926
   33MYC   1H10 3061   3.181   0.488   9.912
   33MYC   2H10 3062   3.026   0.571   9.899
   33MYC    C52 3063   3.159   0.646  10.064
   33MYC    H99 3064   3.111   0.744  10.070
   33MYC   0H10 3065   3.267   0.653  10.084
   33MYC    C51 3066   3.086   0.566  10.174
   33MYC    H97 3067   3.127   0.464  10.171
   33MYC    H98 3068   2.980   0.565  10.149
   33MYC    C50 3069   3.107   0.636  10.310
   33MYC    H95 3070   3.084   0.742  10.295
   33MYC    H96 3071   3.210   0.620  10.346
   33MYC    C49 3072   3.013   0.581  10.418
   33MYC    H93 3073   3.013   0.471  10.415
   33MYC    H94 3074   2.912   0.611  10.388
   33MYC    C48 3075   3.046   0.633  10.559
   33MYC    H91 3076   3.009   0.734  10.581
   33MYC    H92 3077   3.155   0.628  10.567
   33MYC    C47 3078   2.977   0.543  10.663
   33MYC    H89 3079   2.990   0.435  10.650
   33MYC    H90 3080   2.874   0.570  10.638
   33MYC    C46 3081   2.999   0.594  10.807
   33MYC    H87 3082   2.961   0.695  10.826
   33MYC    H88 3083   3.106   0.598  10.829
   33MYC    C45 3084   2.938   0.502  10.914
   33MYC    H85 3085   2.995   0.508  11.008
   33MYC    H86 3086   2.961   0.398  10.887
   33MYC    C44 3087   2.792   0.530  10.953
   33MYC    H83 3088   2.754   0.447  11.014
   33MYC    H84 3089   2.732   0.541  10.862
   33MYC    C18 3090   2.782   0.658  11.036
   33MYC    H31 3091   2.834   0.743  10.993
   33MYC    C17 3092   2.654   0.689  11.107
   33MYC    H30 3093   2.577   0.613  11.096
   33MYC    C19 3094   2.777   0.655  11.186
   33MYC    H32 3095   2.779   0.558  11.236
   33MYC    H33 3096   2.844   0.734  11.220
   33MYC    C16 3097   2.594   0.829  11.122
   33MYC    H28 3098   2.679   0.898  11.116
   33MYC    H29 3099   2.556   0.852  11.222
   33MYC    C15 3100   2.493   0.864  11.012
   33MYC    H26 3101   2.455   0.961  11.046
   33MYC    H27 3102   2.403   0.801  11.012
   33MYC    C14 3103   2.552   0.872  10.870
   33MYC    H24 3104   2.537   0.774  10.823
   33MYC    H25 3105   2.657   0.905  10.871
   33MYC    C13 3106   2.488   0.981  10.782
   33MYC    H22 3107   2.494   1.081  10.827
   33MYC    H23 3108   2.378   0.972  10.776
   33MYC    C12 3109   2.557   0.979  10.645
   33MYC    H20 3110   2.574   0.873  10.621
   33MYC    H21 3111   2.655   1.030  10.648
   33MYC    C11 3112   2.467   1.044  10.538
   33MYC    H18 3113   2.458   1.149  10.567
   33MYC    H19 3114   2.364   1.006  10.540
   33MYC    C10 3115   2.518   1.037  10.393
   33MYC    H16 3116   2.456   1.102  10.330
   33MYC    H17 3117   2.521   0.938  10.348
   33MYC     C9 3118   2.659   1.098  10.378
   33MYC    H14 3119   2.741   1.039  10.420
   33MYC    H15 3120   2.658   1.189  10.438
   33MYC     C8 3121   2.698   1.126  10.232
   33MYC    H12 3122   2.755   1.220  10.225
   33MYC    H13 3123   2.608   1.144  10.172
   33MYC     C7 3124   2.789   1.014  10.176
   33MYC    H10 3125   2.741   0.917  10.193
   33MYC    H11 3126   2.886   1.016  10.226
   33MYC     C6 3127   2.812   1.041  10.026
   33MYC     H8 3128   2.882   1.123  10.008
   33MYC     H9 3129   2.719   1.076   9.980
   33MYC     C5 3130   2.850   0.917   9.945
   33MYC     H6 3131   2.763   0.850   9.949
   33MYC     H7 3132   2.943   0.876   9.987
   33MYC     C4 3133   2.878   0.953   9.798
   33MYC     H4 3134   2.974   0.910   9.770
   33MYC     H5 3135   2.888   1.062   9.793
   33MYC     C2 3136   2.770   0.908   9.698
   33MYC     H2 3137   2.824   0.924   9.604
   33MYC     O3 3138   2.746   0.768   9.715
   33MYC     H3 3139   2.758   0.748   9.810
   33MYC     C1 3140   2.639   0.988   9.694
   33MYC     H1 3141   2.664   1.094   9.687
   33MYC    C81 3142   2.544   0.972   9.812
   33MYC    O82 3143   2.497   0.867   9.852
   33MYC    O83 3144   2.504   1.088   9.867
   33MYC   6H15 3145   2.472   1.056   9.953
   33MYC    C20 3146   2.552   0.941   9.576
   33MYC    H34 3147   2.547   0.832   9.573
   33MYC    H35 3148   2.449   0.977   9.580
   33MYC    C21 3149   2.599   1.007   9.445
   33MYC    H36 3150   2.594   1.115   9.460
   33MYC    H37 3151   2.702   0.978   9.424
   33MYC    C22 3152   2.502   0.964   9.333
   33MYC    H38 3153   2.513   0.854   9.329
   33MYC    H39 3154   2.399   0.995   9.353
   33MYC    C23 3155   2.549   1.028   9.201
   33MYC    H40 3156   2.599   1.121   9.233
   33MYC    H41 3157   2.631   0.968   9.160
   33MYC    C24 3158   2.434   1.044   9.101
   33MYC    H42 3159   2.377   0.950   9.098
   33MYC    H43 3160   2.358   1.113   9.140
   33MYC    C25 3161   2.493   1.094   8.968
   33MYC    H44 3162   2.540   1.192   8.981
   33MYC    H45 3163   2.576   1.028   8.939
   33MYC    C26 3164   2.390   1.108   8.855
   33MYC    H46 3165   2.351   1.008   8.833
   33MYC    H47 3166   2.316   1.183   8.886
   33MYC    C27 3167   2.461   1.165   8.730
   33MYC    H48 3168   2.492   1.268   8.746
   33MYC    H49 3169   2.557   1.113   8.723
   33MYC    C28 3170   2.390   1.147   8.595
   33MYC    H50 3171   2.352   1.044   8.594
   33MYC    H51 3172   2.311   1.223   8.607
   33MYC    C29 3173   2.469   1.187   8.469
   33MYC    H52 3174   2.521   1.284   8.476
   33MYC    H53 3175   2.542   1.106   8.455
   33MYC    C30 3176   2.387   1.197   8.340
   33MYC    H54 3177   2.331   1.102   8.332
   33MYC    H55 3178   2.305   1.269   8.352
   33MYC    C31 3179   2.476   1.225   8.217
   33MYC    H56 3180   2.543   1.310   8.231
   33MYC    H57 3181   2.537   1.135   8.201
   33MYC    C32 3182   2.401   1.257   8.086
   33MYC    H58 3183   2.309   1.198   8.081
   33MYC    H59 3184   2.368   1.362   8.091
   33MYC    C33 3185   2.478   1.240   7.954
   33MYC    H60 3186   2.546   1.321   7.928
   33MYC    H61 3187   2.543   1.154   7.973
   33MYC    C34 3188   2.387   1.216   7.832
   33MYC    H62 3189   2.327   1.124   7.840
   33MYC    H63 3190   2.311   1.295   7.826
   33MYC    C35 3191   2.464   1.216   7.699
   33MYC    H64 3192   2.511   1.313   7.679
   33MYC    H65 3193   2.547   1.144   7.701
   33MYC    C36 3194   2.381   1.190   7.572
   33MYC    H66 3195   2.337   1.089   7.570
   33MYC    H67 3196   2.295   1.258   7.574
   33MYC    C37 3197   2.453   1.192   7.437
   33MYC    H68 3198   2.491   1.294   7.423
   33MYC    H69 3199   2.536   1.121   7.439
   33MYC    C38 3200   2.360   1.165   7.317
   33MYC    H70 3201   2.306   1.071   7.338
   33MYC    H71 3202   2.274   1.233   7.311
   33MYC    C39 3203   2.440   1.166   7.186
   33MYC    H72 3204   2.495   1.261   7.177
   33MYC    H73 3205   2.508   1.080   7.181
   33MYC    C40 3206   2.336   1.171   7.073
   33MYC    H74 3207   2.252   1.105   7.095
   33MYC    H75 3208   2.295   1.273   7.071
   33MYC    C41 3209   2.409   1.138   6.941
   33MYC    H76 3210   2.491   1.203   6.908
   33MYC    H77 3211   2.457   1.041   6.958
   33MYC    C42 3212   2.311   1.128   6.822
   33MYC    H78 3213   2.244   1.043   6.845
   33MYC    H79 3214   2.257   1.222   6.810
   33MYC    C43 3215   2.385   1.094   6.692
   33MYC    H80 3216   2.308   1.083   6.615
   33MYC    H81 3217   2.449   1.005   6.700
   33MYC    H82 3218   2.447   1.183   6.671
   34MYC   5H15 3219   3.631   0.698   6.747
   34MYC    C80 3220   3.718   0.643   6.708
   34MYC   3H15 3221   3.689   0.587   6.618
   34MYC   4H15 3222   3.804   0.709   6.694
   34MYC    C79 3223   3.752   0.529   6.805
   34MYC   1H15 3224   3.849   0.482   6.783
   34MYC   2H15 3225   3.683   0.445   6.790
   34MYC    C78 3226   3.747   0.583   6.949
   34MYC   9H14 3227   3.643   0.612   6.970
   34MYC   0H15 3228   3.798   0.680   6.953
   34MYC    C77 3229   3.781   0.485   7.062
   34MYC   7H14 3230   3.885   0.450   7.057
   34MYC   8H14 3231   3.723   0.394   7.041
   34MYC    C76 3232   3.753   0.533   7.206
   34MYC   5H14 3233   3.645   0.551   7.219
   34MYC   6H14 3234   3.802   0.631   7.210
   34MYC    C75 3235   3.794   0.432   7.314
   34MYC   3H14 3236   3.900   0.406   7.306
   34MYC   4H14 3237   3.749   0.334   7.293
   34MYC    C74 3238   3.762   0.493   7.451
   34MYC   1H14 3239   3.652   0.494   7.459
   34MYC   2H14 3240   3.798   0.596   7.453
   34MYC    C73 3241   3.818   0.413   7.571
   34MYC   9H13 3242   3.926   0.431   7.575
   34MYC   0H14 3243   3.794   0.307   7.557
   34MYC    C72 3244   3.762   0.469   7.702
   34MYC   7H13 3245   3.662   0.423   7.708
   34MYC   8H13 3246   3.753   0.577   7.688
   34MYC    C71 3247   3.842   0.424   7.826
   34MYC   5H13 3248   3.946   0.455   7.819
   34MYC   6H13 3249   3.835   0.315   7.824
   34MYC    C70 3250   3.776   0.479   7.953
   34MYC   3H13 3251   3.669   0.459   7.939
   34MYC   4H13 3252   3.802   0.585   7.965
   34MYC    C69 3253   3.815   0.413   8.086
   34MYC   1H13 3254   3.906   0.463   8.121
   34MYC   2H13 3255   3.849   0.310   8.067
   34MYC    C68 3256   3.712   0.417   8.200
   34MYC   9H12 3257   3.643   0.333   8.187
   34MYC   0H13 3258   3.670   0.519   8.193
   34MYC    C67 3259   3.782   0.398   8.336
   34MYC   7H12 3260   3.867   0.463   8.358
   34MYC   8H12 3261   3.843   0.306   8.333
   34MYC    C66 3262   3.682   0.402   8.452
   34MYC   5H12 3263   3.627   0.307   8.444
   34MYC   6H12 3264   3.609   0.483   8.435
   34MYC    C65 3265   3.743   0.438   8.588
   34MYC   3H12 3266   3.768   0.545   8.591
   34MYC   4H12 3267   3.833   0.382   8.613
   34MYC    C64 3268   3.638   0.411   8.698
   34MYC   1H12 3269   3.627   0.302   8.697
   34MYC   2H12 3270   3.544   0.456   8.664
   34MYC    C63 3271   3.685   0.476   8.830
   34MYC   9H11 3272   3.698   0.584   8.816
   34MYC   0H12 3273   3.786   0.436   8.845
   34MYC    C62 3274   3.595   0.440   8.950
   34MYC   7H11 3275   3.593   0.331   8.955
   34MYC   8H11 3276   3.494   0.482   8.947
   34MYC    C61 3277   3.663   0.499   9.074
   34MYC   5H11 3278   3.684   0.606   9.062
   34MYC   6H11 3279   3.762   0.452   9.081
   34MYC    C60 3280   3.584   0.471   9.202
   34MYC   4H11 3281   3.558   0.367   9.218
   34MYC    C58 3282   3.604   0.559   9.322
   34MYC   1H11 3283   3.667   0.648   9.321
   34MYC    C59 3284   3.476   0.567   9.243
   34MYC   2H11 3285   3.386   0.524   9.286
   34MYC   3H11 3286   3.466   0.656   9.181
   34MYC    C57 3287   3.616   0.484   9.454
   34MYC   9H10 3288   3.706   0.422   9.457
   34MYC   0H11 3289   3.527   0.421   9.465
   34MYC    C56 3290   3.607   0.583   9.572
   34MYC   7H10 3291   3.504   0.617   9.584
   34MYC   8H10 3292   3.668   0.672   9.554
   34MYC    C55 3293   3.655   0.514   9.701
   34MYC   5H10 3294   3.763   0.501   9.688
   34MYC   6H10 3295   3.614   0.412   9.697
   34MYC    C54 3296   3.634   0.588   9.833
   34MYC   3H10 3297   3.530   0.623   9.848
   34MYC   4H10 3298   3.711   0.666   9.843
   34MYC    C53 3299   3.659   0.485   9.945
   34MYC   1H10 3300   3.767   0.463   9.951
   34MYC   2H10 3301   3.607   0.390   9.932
   34MYC    C52 3302   3.621   0.537  10.085
   34MYC    H99 3303   3.511   0.541  10.087
   34MYC   0H10 3304   3.660   0.638  10.098
   34MYC    C51 3305   3.669   0.449  10.201
   34MYC    H97 3306   3.772   0.417  10.182
   34MYC    H98 3307   3.599   0.364  10.207
   34MYC    C50 3308   3.670   0.531  10.331
   34MYC    H95 3309   3.572   0.570  10.360
   34MYC    H96 3310   3.732   0.620  10.315
   34MYC    C49 3311   3.738   0.456  10.447
   34MYC    H93 3312   3.847   0.453  10.440
   34MYC    H94 3313   3.701   0.353  10.438
   34MYC    C48 3314   3.709   0.512  10.587
   34MYC    H91 3315   3.602   0.525  10.610
   34MYC    H92 3316   3.751   0.613  10.584
   34MYC    C47 3317   3.788   0.434  10.694
   34MYC    H89 3318   3.892   0.428  10.660
   34MYC    H90 3319   3.754   0.331  10.707
   34MYC    C46 3320   3.801   0.512  10.826
   34MYC    H87 3321   3.701   0.514  10.871
   34MYC    H88 3322   3.824   0.617  10.802
   34MYC    C45 3323   3.910   0.456  10.920
   34MYC    H85 3324   4.007   0.497  10.892
   34MYC    H86 3325   3.921   0.347  10.915
   34MYC    C44 3326   3.873   0.495  11.065
   34MYC    H83 3327   3.930   0.433  11.135
   34MYC    H84 3328   3.767   0.468  11.075
   34MYC    C18 3329   3.893   0.641  11.103
   34MYC    H31 3330   3.969   0.696  11.049
   34MYC    C17 3331   3.777   0.716  11.165
   34MYC    H30 3332   3.689   0.655  11.185
   34MYC    C19 3333   3.895   0.674  11.251
   34MYC    H32 3334   3.884   0.587  11.316
   34MYC    H33 3335   3.954   0.761  11.276
   34MYC    C16 3336   3.757   0.866  11.149
   34MYC    H28 3337   3.850   0.911  11.113
   34MYC    H29 3338   3.746   0.905  11.251
   34MYC    C15 3339   3.638   0.902  11.059
   34MYC    H26 3340   3.607   1.004  11.085
   34MYC    H27 3341   3.554   0.836  11.086
   34MYC    C14 3342   3.667   0.909  10.908
   34MYC    H24 3343   3.726   0.821  10.879
   34MYC    H25 3344   3.722   1.002  10.888
   34MYC    C13 3345   3.534   0.924  10.832
   34MYC    H22 3346   3.483   1.021  10.842
   34MYC    H23 3347   3.457   0.861  10.877
   34MYC    C12 3348   3.551   0.889  10.683
   34MYC    H20 3349   3.589   0.786  10.674
   34MYC    H21 3350   3.632   0.946  10.635
   34MYC    C11 3351   3.418   0.920  10.614
   34MYC    H18 3352   3.405   1.029  10.605
   34MYC    H19 3353   3.332   0.875  10.664
   34MYC    C10 3354   3.430   0.868  10.469
   34MYC    H16 3355   3.334   0.883  10.417
   34MYC    H17 3356   3.446   0.760  10.466
   34MYC     C9 3357   3.540   0.927  10.380
   34MYC    H14 3358   3.634   0.872  10.396
   34MYC    H15 3359   3.555   1.032  10.408
   34MYC     C8 3360   3.487   0.919  10.236
   34MYC    H12 3361   3.399   0.982  10.216
   34MYC    H13 3362   3.450   0.819  10.210
   34MYC     C7 3363   3.600   0.950  10.137
   34MYC    H10 3364   3.665   0.862  10.132
   34MYC    H11 3365   3.654   1.037  10.177
   34MYC     C6 3366   3.541   0.991  10.000
   34MYC     H8 3367   3.453   1.055  10.009
   34MYC     H9 3368   3.503   0.902   9.950
   34MYC     C5 3369   3.637   1.059   9.901
   34MYC     H6 3370   3.712   0.985   9.868
   34MYC     H7 3371   3.691   1.138   9.954
   34MYC     C4 3372   3.570   1.126   9.780
   34MYC     H4 3373   3.634   1.211   9.755
   34MYC     H5 3374   3.472   1.165   9.812
   34MYC     C2 3375   3.554   1.047   9.649
   34MYC     H2 3376   3.652   1.018   9.609
   34MYC     O3 3377   3.472   0.931   9.665
   34MYC     H3 3378   3.534   0.856   9.673
   34MYC     C1 3379   3.494   1.140   9.543
   34MYC     H1 3380   3.563   1.221   9.516
   34MYC    C81 3381   3.370   1.218   9.587
   34MYC    O82 3382   3.258   1.172   9.580
   34MYC    O83 3383   3.401   1.346   9.616
   34MYC   6H15 3384   3.316   1.380   9.649
   34MYC    C20 3385   3.462   1.067   9.412
   34MYC    H34 3386   3.393   0.983   9.421
   34MYC    H35 3387   3.404   1.142   9.357
   34MYC    C21 3388   3.576   1.026   9.317
   34MYC    H36 3389   3.634   1.118   9.305
   34MYC    H37 3390   3.642   0.944   9.349
   34MYC    C22 3391   3.513   0.998   9.180
   34MYC    H38 3392   3.429   0.927   9.189
   34MYC    H39 3393   3.461   1.088   9.145
   34MYC    C23 3394   3.617   0.949   9.077
   34MYC    H40 3395   3.709   1.008   9.072
   34MYC    H41 3396   3.654   0.851   9.111
   34MYC    C24 3397   3.559   0.939   8.935
   34MYC    H42 3398   3.479   0.864   8.941
   34MYC    H43 3399   3.509   1.033   8.908
   34MYC    C25 3400   3.663   0.898   8.829
   34MYC    H44 3401   3.735   0.979   8.822
   34MYC    H45 3402   3.726   0.811   8.853
   34MYC    C26 3403   3.598   0.868   8.693
   34MYC    H46 3404   3.568   0.763   8.690
   34MYC    H47 3405   3.517   0.940   8.674
   34MYC    C27 3406   3.696   0.887   8.576
   34MYC    H48 3407   3.740   0.988   8.570
   34MYC    H49 3408   3.787   0.827   8.585
   34MYC    C28 3409   3.622   0.856   8.445
   34MYC    H50 3410   3.574   0.757   8.440
   34MYC    H51 3411   3.535   0.920   8.428
   34MYC    C29 3412   3.722   0.869   8.329
   34MYC    H52 3413   3.787   0.956   8.349
   34MYC    H53 3414   3.783   0.778   8.320
   34MYC    C30 3415   3.645   0.889   8.197
   34MYC    H54 3416   3.566   0.815   8.177
   34MYC    H55 3417   3.590   0.984   8.203
   34MYC    C31 3418   3.739   0.883   8.076
   34MYC    H56 3419   3.826   0.947   8.093
   34MYC    H57 3420   3.777   0.782   8.059
   34MYC    C32 3421   3.665   0.924   7.947
   34MYC    H58 3422   3.558   0.905   7.954
   34MYC    H59 3423   3.678   1.032   7.930
   34MYC    C33 3424   3.716   0.853   7.821
   34MYC    H60 3425   3.825   0.841   7.826
   34MYC    H61 3426   3.661   0.758   7.814
   34MYC    C34 3427   3.695   0.942   7.697
   34MYC    H62 3428   3.598   0.993   7.702
   34MYC    H63 3429   3.775   1.016   7.710
   34MYC    C35 3430   3.717   0.870   7.563
   34MYC    H64 3431   3.799   0.798   7.571
   34MYC    H65 3432   3.637   0.801   7.532
   34MYC    C36 3433   3.731   0.967   7.445
   34MYC    H66 3434   3.632   1.014   7.434
   34MYC    H67 3435   3.798   1.045   7.482
   34MYC    C37 3436   3.770   0.903   7.310
   34MYC    H68 3437   3.855   0.839   7.332
   34MYC    H69 3438   3.680   0.853   7.271
   34MYC    C38 3439   3.804   1.016   7.211
   34MYC    H70 3440   3.727   1.092   7.226
   34MYC    H71 3441   3.893   1.073   7.239
   34MYC    C39 3442   3.812   0.984   7.060
   34MYC    H72 3443   3.914   0.964   7.023
   34MYC    H73 3444   3.758   0.891   7.040
   34MYC    C40 3445   3.746   1.091   6.972
   34MYC    H74 3446   3.647   1.121   7.010
   34MYC    H75 3447   3.813   1.177   6.963
   34MYC    C41 3448   3.733   1.036   6.829
   34MYC    H76 3449   3.834   1.014   6.792
   34MYC    H77 3450   3.676   0.942   6.832
   34MYC    C42 3451   3.662   1.139   6.740
   34MYC    H78 3452   3.559   1.150   6.775
   34MYC    H79 3453   3.711   1.235   6.764
   34MYC    C43 3454   3.664   1.096   6.593
   34MYC    H80 3455   3.630   1.181   6.532
   34MYC    H81 3456   3.592   1.015   6.578
   34MYC    H82 3457   3.764   1.066   6.560
   35MYC   5H15 3458   4.066   0.870   6.563
   35MYC    C80 3459   4.107   0.893   6.662
   35MYC   3H15 3460   4.214   0.909   6.640
   35MYC   4H15 3461   4.066   0.991   6.690
   35MYC    C79 3462   4.089   0.783   6.767
   35MYC   1H15 3463   4.101   0.685   6.718
   35MYC   2H15 3464   3.989   0.782   6.812
   35MYC    C78 3465   4.188   0.793   6.884
   35MYC   9H14 3466   4.198   0.899   6.910
   35MYC   0H15 3467   4.287   0.766   6.845
   35MYC    C77 3468   4.145   0.720   7.012
   35MYC   7H14 3469   4.181   0.616   7.011
   35MYC   8H14 3470   4.037   0.703   7.012
   35MYC    C76 3471   4.195   0.799   7.134
   35MYC   5H14 3472   4.146   0.897   7.138
   35MYC   6H14 3473   4.303   0.815   7.127
   35MYC    C75 3474   4.154   0.725   7.263
   35MYC   3H14 3475   4.194   0.623   7.274
   35MYC   4H14 3476   4.045   0.708   7.266
   35MYC    C74 3477   4.201   0.790   7.394
   35MYC   1H14 3478   4.155   0.890   7.399
   35MYC   2H14 3479   4.310   0.803   7.393
   35MYC    C73 3480   4.163   0.708   7.519
   35MYC   9H13 3481   4.197   0.605   7.509
   35MYC   0H14 3482   4.054   0.714   7.533
   35MYC    C72 3483   4.228   0.768   7.644
   35MYC   7H13 3484   4.219   0.877   7.637
   35MYC   8H13 3485   4.335   0.746   7.634
   35MYC    C71 3486   4.154   0.719   7.770
   35MYC   5H13 3487   4.152   0.609   7.779
   35MYC   6H13 3488   4.048   0.748   7.760
   35MYC    C70 3489   4.217   0.771   7.900
   35MYC   3H13 3490   4.214   0.880   7.885
   35MYC   4H13 3491   4.321   0.737   7.906
   35MYC    C69 3492   4.134   0.728   8.021
   35MYC   1H13 3493   4.125   0.619   8.025
   35MYC   2H13 3494   4.032   0.767   8.005
   35MYC    C68 3495   4.192   0.778   8.154
   35MYC   9H12 3496   4.184   0.887   8.165
   35MYC   0H13 3497   4.299   0.755   8.163
   35MYC    C67 3498   4.125   0.724   8.282
   35MYC   7H12 3499   4.136   0.616   8.272
   35MYC   8H12 3500   4.020   0.755   8.274
   35MYC    C66 3501   4.181   0.779   8.414
   35MYC   5H12 3502   4.141   0.881   8.417
   35MYC   6H12 3503   4.290   0.779   8.402
   35MYC    C65 3504   4.136   0.690   8.531
   35MYC   3H12 3505   4.190   0.594   8.529
   35MYC   4H12 3506   4.031   0.660   8.539
   35MYC    C64 3507   4.157   0.751   8.670
   35MYC   1H12 3508   4.078   0.826   8.688
   35MYC   2H12 3509   4.252   0.805   8.680
   35MYC    C63 3510   4.150   0.650   8.786
   35MYC   9H11 3511   4.236   0.582   8.783
   35MYC   0H12 3512   4.055   0.596   8.778
   35MYC    C62 3513   4.161   0.726   8.920
   35MYC   7H11 3514   4.059   0.765   8.935
   35MYC   8H11 3515   4.229   0.810   8.903
   35MYC    C61 3516   4.196   0.647   9.046
   35MYC   5H11 3517   4.297   0.605   9.034
   35MYC   6H11 3518   4.135   0.556   9.054
   35MYC    C60 3519   4.180   0.728   9.174
   35MYC   4H11 3520   4.087   0.780   9.195
   35MYC    C58 3521   4.257   0.680   9.294
   35MYC   1H11 3522   4.311   0.587   9.281
   35MYC    C59 3523   4.303   0.802   9.219
   35MYC   2H11 3524   4.295   0.886   9.287
   35MYC   3H11 3525   4.395   0.800   9.160
   35MYC    C57 3526   4.198   0.693   9.434
   35MYC   9H10 3527   4.132   0.780   9.434
   35MYC   0H11 3528   4.281   0.724   9.498
   35MYC    C56 3529   4.140   0.561   9.490
   35MYC   7H10 3530   4.215   0.484   9.512
   35MYC   8H10 3531   4.073   0.520   9.413
   35MYC    C55 3532   4.054   0.585   9.615
   35MYC   5H10 3533   3.993   0.496   9.635
   35MYC   6H10 3534   3.983   0.667   9.602
   35MYC    C54 3535   4.139   0.604   9.742
   35MYC   3H10 3536   4.206   0.689   9.725
   35MYC   4H10 3537   4.203   0.517   9.761
   35MYC    C53 3538   4.056   0.613   9.871
   35MYC   1H10 3539   3.989   0.527   9.878
   35MYC   2H10 3540   3.990   0.701   9.865
   35MYC    C52 3541   4.147   0.630   9.994
   35MYC    H99 3542   4.221   0.711   9.982
   35MYC   0H10 3543   4.209   0.540  10.001
   35MYC    C51 3544   4.073   0.645  10.128
   35MYC    H97 3545   4.027   0.549  10.156
   35MYC    H98 3546   3.995   0.721  10.116
   35MYC    C50 3547   4.165   0.688  10.243
   35MYC    H95 3548   4.235   0.765  10.209
   35MYC    H96 3549   4.223   0.601  10.275
   35MYC    C49 3550   4.097   0.730  10.375
   35MYC    H93 3551   4.020   0.660  10.410
   35MYC    H94 3552   4.041   0.821  10.351
   35MYC    C48 3553   4.194   0.766  10.489
   35MYC    H91 3554   4.267   0.841  10.456
   35MYC    H92 3555   4.248   0.674  10.516
   35MYC    C47 3556   4.130   0.818  10.618
   35MYC    H89 3557   4.033   0.771  10.638
   35MYC    H90 3558   4.114   0.927  10.610
   35MYC    C46 3559   4.215   0.781  10.741
   35MYC    H87 3560   4.322   0.782  10.716
   35MYC    H88 3561   4.190   0.676  10.761
   35MYC    C45 3562   4.169   0.861  10.864
   35MYC    H85 3563   4.075   0.823  10.904
   35MYC    H86 3564   4.151   0.968  10.850
   35MYC    C44 3565   4.274   0.858  10.977
   35MYC    H83 3566   4.252   0.937  11.050
   35MYC    H84 3567   4.378   0.873  10.947
   35MYC    C18 3568   4.268   0.729  11.058
   35MYC    H31 3569   4.212   0.654  11.002
   35MYC    C17 3570   4.368   0.693  11.165
   35MYC    H30 3571   4.440   0.765  11.202
   35MYC    C19 3572   4.226   0.726  11.202
   35MYC    H32 3573   4.209   0.822  11.250
   35MYC    H33 3574   4.159   0.644  11.230
   35MYC    C16 3575   4.418   0.549  11.169
   35MYC    H28 3576   4.342   0.473  11.145
   35MYC    H29 3577   4.459   0.533  11.269
   35MYC    C15 3578   4.530   0.545  11.064
   35MYC    H26 3579   4.601   0.471  11.102
   35MYC    H27 3580   4.591   0.636  11.058
   35MYC    C14 3581   4.483   0.511  10.922
   35MYC    H24 3582   4.388   0.563  10.905
   35MYC    H25 3583   4.455   0.405  10.911
   35MYC    C13 3584   4.583   0.548  10.811
   35MYC    H22 3585   4.689   0.538  10.840
   35MYC    H23 3586   4.570   0.654  10.784
   35MYC    C12 3587   4.564   0.481  10.674
   35MYC    H20 3588   4.466   0.519  10.643
   35MYC    H21 3589   4.549   0.372  10.670
   35MYC    C11 3590   4.669   0.523  10.571
   35MYC    H18 3591   4.679   0.440  10.499
   35MYC    H19 3592   4.769   0.532  10.614
   35MYC    C10 3593   4.645   0.653  10.492
   35MYC    H16 3594   4.736   0.713  10.473
   35MYC    H17 3595   4.590   0.721  10.558
   35MYC     C9 3596   4.559   0.633  10.366
   35MYC    H14 3597   4.541   0.732  10.323
   35MYC    H15 3598   4.466   0.579  10.388
   35MYC     C8 3599   4.618   0.545  10.255
   35MYC    H12 3600   4.620   0.439  10.284
   35MYC    H13 3601   4.725   0.565  10.248
   35MYC     C7 3602   4.550   0.563  10.118
   35MYC    H10 3603   4.523   0.669  10.110
   35MYC    H11 3604   4.461   0.500  10.108
   35MYC     C6 3605   4.644   0.516  10.005
   35MYC     H8 3606   4.683   0.416  10.026
   35MYC     H9 3607   4.731   0.582   9.993
   35MYC     C5 3608   4.576   0.512   9.867
   35MYC     H6 3609   4.517   0.603   9.847
   35MYC     H7 3610   4.510   0.425   9.872
   35MYC     C4 3611   4.667   0.486   9.746
   35MYC     H4 3612   4.632   0.404   9.682
   35MYC     H5 3613   4.764   0.448   9.778
   35MYC     C2 3614   4.703   0.610   9.662
   35MYC     H2 3615   4.620   0.614   9.590
   35MYC     O3 3616   4.704   0.725   9.746
   35MYC     H3 3617   4.740   0.697   9.832
   35MYC     C1 3618   4.827   0.595   9.573
   35MYC     H1 3619   4.830   0.495   9.527
   35MYC    C81 3620   4.952   0.614   9.658
   35MYC    O82 3621   4.991   0.725   9.689
   35MYC    O83 3622   5.040   0.512   9.648
   35MYC   6H15 3623   5.117   0.552   9.692
   35MYC    C20 3624   4.822   0.690   9.452
   35MYC    H34 3625   4.775   0.786   9.477
   35MYC    H35 3626   4.927   0.708   9.427
   35MYC    C21 3627   4.745   0.633   9.332
   35MYC    H36 3628   4.771   0.531   9.300
   35MYC    H37 3629   4.642   0.621   9.367
   35MYC    C22 3630   4.750   0.717   9.203
   35MYC    H38 3631   4.682   0.802   9.218
   35MYC    H39 3632   4.852   0.754   9.186
   35MYC    C23 3633   4.691   0.646   9.081
   35MYC    H40 3634   4.723   0.541   9.079
   35MYC    H41 3635   4.583   0.633   9.098
   35MYC    C24 3636   4.725   0.713   8.947
   35MYC    H42 3637   4.680   0.813   8.940
   35MYC    H43 3638   4.832   0.738   8.946
   35MYC    C25 3639   4.685   0.631   8.824
   35MYC    H44 3640   4.723   0.528   8.826
   35MYC    H45 3641   4.578   0.612   8.808
   35MYC    C26 3642   4.735   0.702   8.697
   35MYC    H46 3643   4.704   0.807   8.699
   35MYC    H47 3644   4.844   0.712   8.697
   35MYC    C27 3645   4.688   0.637   8.566
   35MYC    H48 3646   4.721   0.533   8.569
   35MYC    H49 3647   4.579   0.646   8.553
   35MYC    C28 3648   4.750   0.705   8.443
   35MYC    H50 3649   4.747   0.813   8.462
   35MYC    H51 3650   4.858   0.684   8.434
   35MYC    C29 3651   4.679   0.662   8.313
   35MYC    H52 3652   4.667   0.553   8.308
   35MYC    H53 3653   4.576   0.700   8.313
   35MYC    C30 3654   4.749   0.721   8.190
   35MYC    H54 3655   4.765   0.829   8.201
   35MYC    H55 3656   4.847   0.672   8.182
   35MYC    C31 3657   4.667   0.687   8.065
   35MYC    H56 3658   4.654   0.578   8.061
   35MYC    H57 3659   4.574   0.744   8.068
   35MYC    C32 3660   4.743   0.730   7.938
   35MYC    H58 3661   4.762   0.838   7.935
   35MYC    H59 3662   4.842   0.682   7.937
   35MYC    C33 3663   4.661   0.692   7.814
   35MYC    H60 3664   4.642   0.584   7.820
   35MYC    H61 3665   4.561   0.737   7.819
   35MYC    C34 3666   4.732   0.729   7.682
   35MYC    H62 3667   4.762   0.835   7.676
   35MYC    H63 3668   4.819   0.665   7.664
   35MYC    C35 3669   4.636   0.698   7.566
   35MYC    H64 3670   4.612   0.591   7.572
   35MYC    H65 3671   4.541   0.752   7.572
   35MYC    C36 3672   4.713   0.726   7.436
   35MYC    H66 3673   4.762   0.824   7.431
   35MYC    H67 3674   4.798   0.657   7.432
   35MYC    C37 3675   4.618   0.693   7.320
   35MYC    H68 3676   4.586   0.590   7.342
   35MYC    H69 3677   4.525   0.752   7.324
   35MYC    C38 3678   4.695   0.701   7.187
   35MYC    H70 3679   4.712   0.806   7.161
   35MYC    H71 3680   4.794   0.653   7.193
   35MYC    C39 3681   4.625   0.633   7.068
   35MYC    H72 3682   4.589   0.533   7.096
   35MYC    H73 3683   4.532   0.691   7.062
   35MYC    C40 3684   4.709   0.629   6.940
   35MYC    H74 3685   4.741   0.731   6.915
   35MYC    H75 3686   4.799   0.567   6.955
   35MYC    C41 3687   4.617   0.579   6.828
   35MYC    H76 3688   4.578   0.477   6.841
   35MYC    H77 3689   4.543   0.657   6.808
   35MYC    C42 3690   4.692   0.563   6.695
   35MYC    H78 3691   4.752   0.654   6.700
   35MYC    H79 3692   4.752   0.471   6.695
   35MYC    C43 3693   4.592   0.587   6.580
   35MYC    H80 3694   4.648   0.577   6.486
   35MYC    H81 3695   4.553   0.688   6.595
   35MYC    H82 3696   4.509   0.515   6.572
   36MYC   5H15 3697   5.123   0.287   6.568
   36MYC    C80 3698   5.156   0.356   6.646
   36MYC   3H15 3699   5.265   0.363   6.642
   36MYC   4H15 3700   5.105   0.451   6.629
   36MYC    C79 3701   5.114   0.309   6.787
   36MYC   1H15 3702   5.156   0.209   6.799
   36MYC   2H15 3703   5.005   0.299   6.786
   36MYC    C78 3704   5.162   0.405   6.897
   36MYC   9H14 3705   5.133   0.508   6.875
   36MYC   0H15 3706   5.270   0.423   6.894
   36MYC    C77 3707   5.106   0.364   7.035
   36MYC   7H14 3708   5.119   0.257   7.050
   36MYC   8H14 3709   4.998   0.383   7.030
   36MYC    C76 3710   5.170   0.443   7.150
   36MYC   5H14 3711   5.141   0.546   7.125
   36MYC   6H14 3712   5.280   0.441   7.149
   36MYC    C75 3713   5.116   0.404   7.288
   36MYC   3H14 3714   5.117   0.294   7.288
   36MYC   4H14 3715   5.007   0.413   7.300
   36MYC    C74 3716   5.196   0.458   7.408
   36MYC   1H14 3717   5.185   0.565   7.426
   36MYC   2H14 3718   5.304   0.447   7.395
   36MYC    C73 3719   5.150   0.386   7.537
   36MYC   9H13 3720   5.171   0.279   7.528
   36MYC   0H14 3721   5.042   0.397   7.553
   36MYC    C72 3722   5.214   0.439   7.666
   36MYC   7H13 3723   5.194   0.544   7.687
   36MYC   8H13 3724   5.324   0.431   7.662
   36MYC    C71 3725   5.166   0.353   7.785
   36MYC   5H13 3726   5.165   0.247   7.758
   36MYC   6H13 3727   5.061   0.383   7.798
   36MYC    C70 3728   5.245   0.382   7.914
   36MYC   3H13 3729   5.254   0.490   7.927
   36MYC   4H13 3730   5.350   0.351   7.905
   36MYC    C69 3731   5.175   0.311   8.031
   36MYC   1H13 3732   5.211   0.207   8.031
   36MYC   2H13 3733   5.068   0.305   8.012
   36MYC    C68 3734   5.200   0.377   8.168
   36MYC   9H12 3735   5.143   0.471   8.171
   36MYC   0H13 3736   5.305   0.397   8.193
   36MYC    C67 3737   5.144   0.285   8.278
   36MYC   7H12 3738   5.187   0.185   8.267
   36MYC   8H12 3739   5.034   0.283   8.280
   36MYC    C66 3740   5.194   0.349   8.408
   36MYC   5H12 3741   5.159   0.453   8.407
   36MYC   6H12 3742   5.304   0.350   8.418
   36MYC    C65 3743   5.136   0.272   8.528
   36MYC   3H12 3744   5.183   0.174   8.539
   36MYC   4H12 3745   5.030   0.246   8.524
   36MYC    C64 3746   5.161   0.337   8.666
   36MYC   1H12 3747   5.083   0.413   8.678
   36MYC   2H12 3748   5.263   0.378   8.675
   36MYC    C63 3749   5.141   0.232   8.777
   36MYC   9H11 3750   5.217   0.153   8.774
   36MYC   0H12 3751   5.045   0.182   8.758
   36MYC    C62 3752   5.143   0.293   8.918
   36MYC   7H11 3753   5.073   0.378   8.916
   36MYC   8H11 3754   5.239   0.337   8.948
   36MYC    C61 3755   5.100   0.190   9.023
   36MYC   5H11 3756   5.174   0.110   9.031
   36MYC   6H11 3757   5.003   0.147   8.994
   36MYC    C60 3758   5.082   0.256   9.159
   36MYC   4H11 3759   5.012   0.339   9.158
   36MYC    C58 3760   5.110   0.188   9.291
   36MYC   1H11 3761   5.145   0.085   9.296
   36MYC    C59 3762   5.211   0.283   9.233
   36MYC   2H11 3763   5.223   0.379   9.281
   36MYC   3H11 3764   5.306   0.239   9.201
   36MYC    C57 3765   5.043   0.224   9.423
   36MYC   9H10 3766   4.963   0.299   9.409
   36MYC   0H11 3767   5.115   0.270   9.491
   36MYC    C56 3768   4.970   0.101   9.480
   36MYC   7H10 3769   5.052   0.033   9.505
   36MYC   8H10 3770   4.909   0.054   9.402
   36MYC    C55 3771   4.889   0.109   9.610
   36MYC   5H10 3772   4.847   0.011   9.634
   36MYC   6H10 3773   4.812   0.185   9.590
   36MYC    C54 3774   4.965   0.164   9.732
   36MYC   3H10 3775   4.983   0.272   9.722
   36MYC   4H10 3776   5.059   0.108   9.738
   36MYC    C53 3777   4.891   0.155   9.866
   36MYC   1H10 3778   4.870   0.051   9.892
   36MYC   2H10 3779   4.791   0.195   9.846
   36MYC    C52 3780   4.962   0.231   9.979
   36MYC    H99 3781   4.910   0.323  10.008
   36MYC   0H10 3782   5.067   0.255   9.956
   36MYC    C51 3783   4.956   0.153  10.112
   36MYC    H97 3784   5.018   0.062  10.110
   36MYC    H98 3785   4.852   0.123  10.131
   36MYC    C50 3786   5.004   0.234  10.233
   36MYC    H95 3787   4.929   0.313  10.250
   36MYC    H96 3788   5.101   0.276  10.207
   36MYC    C49 3789   5.007   0.172  10.374
   36MYC    H93 3790   5.088   0.098  10.379
   36MYC    H94 3791   4.918   0.114  10.403
   36MYC    C48 3792   5.034   0.276  10.483
   36MYC    H91 3793   4.945   0.338  10.504
   36MYC    H92 3794   5.111   0.347  10.452
   36MYC    C47 3795   5.079   0.210  10.614
   36MYC    H89 3796   5.180   0.166  10.617
   36MYC    H90 3797   5.013   0.125  10.637
   36MYC    C46 3798   5.072   0.313  10.728
   36MYC    H87 3799   5.074   0.418  10.696
   36MYC    H88 3800   5.151   0.302  10.803
   36MYC    C45 3801   4.945   0.297  10.814
   36MYC    H85 3802   4.946   0.198  10.862
   36MYC    H86 3803   4.857   0.304  10.750
   36MYC    C44 3804   4.915   0.393  10.931
   36MYC    H83 3805   4.816   0.363  10.967
   36MYC    H84 3806   4.915   0.495  10.891
   36MYC    C18 3807   5.008   0.372  11.050
   36MYC    H31 3808   5.101   0.328  11.016
   36MYC    C17 3809   5.032   0.485  11.147
   36MYC    H30 3810   4.977   0.578  11.135
   36MYC    C19 3811   4.951   0.365  11.190
   36MYC    H32 3812   4.843   0.370  11.192
   36MYC    H33 3813   4.998   0.285  11.248
   36MYC    C16 3814   5.159   0.511  11.228
   36MYC    H28 3815   5.224   0.423  11.234
   36MYC    H29 3816   5.138   0.532  11.333
   36MYC    C15 3817   5.242   0.628  11.172
   36MYC    H26 3818   5.334   0.646  11.229
   36MYC    H27 3819   5.177   0.716  11.181
   36MYC    C14 3820   5.267   0.605  11.022
   36MYC    H24 3821   5.186   0.644  10.959
   36MYC    H25 3822   5.278   0.496  11.009
   36MYC    C13 3823   5.398   0.669  10.973
   36MYC    H22 3824   5.486   0.611  11.005
   36MYC    H23 3825   5.408   0.770  11.014
   36MYC    C12 3826   5.403   0.679  10.820
   36MYC    H20 3827   5.360   0.776  10.793
   36MYC    H21 3828   5.349   0.594  10.777
   36MYC    C11 3829   5.548   0.679  10.768
   36MYC    H18 3830   5.607   0.589  10.789
   36MYC    H19 3831   5.606   0.762  10.811
   36MYC    C10 3832   5.552   0.714  10.618
   36MYC    H16 3833   5.655   0.706  10.582
   36MYC    H17 3834   5.521   0.818  10.602
   36MYC     C9 3835   5.474   0.623  10.522
   36MYC    H14 3836   5.369   0.650  10.534
   36MYC    H15 3837   5.485   0.517  10.550
   36MYC     C8 3838   5.519   0.650  10.377
   36MYC    H12 3839   5.620   0.614  10.356
   36MYC    H13 3840   5.509   0.758  10.362
   36MYC     C7 3841   5.421   0.584  10.278
   36MYC    H10 3842   5.321   0.627  10.291
   36MYC    H11 3843   5.408   0.476  10.284
   36MYC     C6 3844   5.463   0.609  10.132
   36MYC     H8 3845   5.572   0.594  10.126
   36MYC     H9 3846   5.456   0.715  10.103
   36MYC     C5 3847   5.393   0.526  10.024
   36MYC     H6 3848   5.285   0.543  10.038
   36MYC     H7 3849   5.406   0.419  10.045
   36MYC     C4 3850   5.448   0.567   9.886
   36MYC     H4 3851   5.489   0.478   9.836
   36MYC     H5 3852   5.537   0.630   9.899
   36MYC     C2 3853   5.349   0.627   9.786
   36MYC     H2 3854   5.298   0.543   9.737
   36MYC     O3 3855   5.246   0.706   9.844
   36MYC     H3 3856   5.157   0.669   9.836
   36MYC     C1 3857   5.417   0.701   9.669
   36MYC     H1 3858   5.499   0.630   9.650
   36MYC    C81 3859   5.477   0.836   9.704
   36MYC    O82 3860   5.429   0.941   9.666
   36MYC    O83 3861   5.594   0.834   9.772
   36MYC   6H15 3862   5.606   0.930   9.781
   36MYC    C20 3863   5.323   0.690   9.548
   36MYC    H34 3864   5.280   0.590   9.532
   36MYC    H35 3865   5.234   0.752   9.565
   36MYC    C21 3866   5.385   0.732   9.414
   36MYC    H36 3867   5.392   0.841   9.422
   36MYC    H37 3868   5.484   0.687   9.406
   36MYC    C22 3869   5.296   0.691   9.295
   36MYC    H38 3870   5.284   0.582   9.297
   36MYC    H39 3871   5.197   0.736   9.310
   36MYC    C23 3872   5.355   0.738   9.161
   36MYC    H40 3873   5.362   0.848   9.161
   36MYC    H41 3874   5.460   0.709   9.152
   36MYC    C24 3875   5.278   0.703   9.033
   36MYC    H42 3876   5.267   0.594   9.020
   36MYC    H43 3877   5.176   0.743   9.034
   36MYC    C25 3878   5.355   0.753   8.909
   36MYC    H44 3879   5.370   0.862   8.918
   36MYC    H45 3880   5.455   0.709   8.906
   36MYC    C26 3881   5.288   0.727   8.773
   36MYC    H46 3882   5.271   0.619   8.769
   36MYC    H47 3883   5.184   0.759   8.773
   36MYC    C27 3884   5.369   0.763   8.648
   36MYC    H48 3885   5.365   0.873   8.644
   36MYC    H49 3886   5.475   0.740   8.665
   36MYC    C28 3887   5.308   0.711   8.517
   36MYC    H50 3888   5.329   0.605   8.496
   36MYC    H51 3889   5.200   0.730   8.518
   36MYC    C29 3890   5.360   0.796   8.400
   36MYC    H52 3891   5.338   0.902   8.416
   36MYC    H53 3892   5.469   0.783   8.399
   36MYC    C30 3893   5.310   0.753   8.261
   36MYC    H54 3894   5.268   0.651   8.267
   36MYC    H55 3895   5.222   0.812   8.232
   36MYC    C31 3896   5.406   0.767   8.142
   36MYC    H56 3897   5.486   0.838   8.166
   36MYC    H57 3898   5.453   0.669   8.130
   36MYC    C32 3899   5.338   0.812   8.012
   36MYC    H58 3900   5.240   0.763   8.004
   36MYC    H59 3901   5.309   0.918   8.015
   36MYC    C33 3902   5.414   0.783   7.881
   36MYC    H60 3903   5.512   0.833   7.875
   36MYC    H61 3904   5.432   0.675   7.878
   36MYC    C34 3905   5.341   0.838   7.757
   36MYC    H62 3906   5.236   0.808   7.757
   36MYC    H63 3907   5.342   0.947   7.763
   36MYC    C35 3908   5.411   0.773   7.636
   36MYC    H64 3909   5.518   0.792   7.651
   36MYC    H65 3910   5.402   0.663   7.641
   36MYC    C36 3911   5.369   0.831   7.500
   36MYC    H66 3912   5.264   0.814   7.473
   36MYC    H67 3913   5.375   0.938   7.524
   36MYC    C37 3914   5.461   0.793   7.383
   36MYC    H68 3915   5.550   0.857   7.390
   36MYC    H69 3916   5.489   0.687   7.387
   36MYC    C38 3917   5.385   0.802   7.249
   36MYC    H70 3918   5.296   0.739   7.258
   36MYC    H71 3919   5.357   0.905   7.228
   36MYC    C39 3920   5.474   0.743   7.138
   36MYC    H72 3921   5.570   0.797   7.135
   36MYC    H73 3922   5.510   0.642   7.160
   36MYC    C40 3923   5.411   0.730   6.998
   36MYC    H74 3924   5.349   0.639   7.000
   36MYC    H75 3925   5.348   0.817   6.975
   36MYC    C41 3926   5.513   0.725   6.884
   36MYC    H76 3927   5.565   0.820   6.867
   36MYC    H77 3928   5.589   0.657   6.923
   36MYC    C42 3929   5.461   0.665   6.752
   36MYC    H78 3930   5.404   0.574   6.775
   36MYC    H79 3931   5.377   0.722   6.712
   36MYC    C43 3932   5.571   0.629   6.650
   36MYC    H80 3933   5.523   0.552   6.588
   36MYC    H81 3934   5.669   0.600   6.691
   36MYC    H82 3935   5.594   0.714   6.584
   37MYC   5H15 3936   6.024   0.362   6.635
   37MYC    C80 3937   6.117   0.418   6.646
   37MYC   3H15 3938   6.190   0.378   6.575
   37MYC   4H15 3939   6.095   0.522   6.620
   37MYC    C79 3940   6.181   0.404   6.786
   37MYC   1H15 3941   6.260   0.478   6.801
   37MYC   2H15 3942   6.224   0.304   6.799
   37MYC    C78 3943   6.083   0.424   6.903
   37MYC   9H14 3944   6.006   0.346   6.898
   37MYC   0H15 3945   6.031   0.521   6.903
   37MYC    C77 3946   6.147   0.420   7.043
   37MYC   7H14 3947   6.238   0.481   7.038
   37MYC   8H14 3948   6.183   0.317   7.059
   37MYC    C76 3949   6.053   0.447   7.161
   37MYC   5H14 3950   5.960   0.389   7.162
   37MYC   6H14 3951   6.021   0.552   7.161
   37MYC    C75 3952   6.119   0.406   7.294
   37MYC   3H14 3953   6.220   0.449   7.297
   37MYC   4H14 3954   6.125   0.297   7.287
   37MYC    C74 3955   6.035   0.442   7.418
   37MYC   1H14 3956   5.943   0.382   7.431
   37MYC   2H14 3957   6.005   0.546   7.404
   37MYC    C73 3958   6.125   0.426   7.541
   37MYC   9H13 3959   6.207   0.499   7.535
   37MYC   0H14 3960   6.163   0.323   7.545
   37MYC    C72 3961   6.053   0.442   7.676
   37MYC   7H13 3962   5.990   0.353   7.692
   37MYC   8H13 3963   5.995   0.535   7.674
   37MYC    C71 3964   6.157   0.453   7.788
   37MYC   5H13 3965   6.230   0.532   7.762
   37MYC   6H13 3966   6.208   0.356   7.791
   37MYC    C70 3967   6.087   0.482   7.921
   37MYC   3H13 3968   5.999   0.417   7.929
   37MYC   4H13 3969   6.051   0.586   7.921
   37MYC    C69 3970   6.187   0.459   8.035
   37MYC   1H13 3971   6.268   0.531   8.016
   37MYC   2H13 3972   6.221   0.355   8.026
   37MYC    C68 3973   6.115   0.470   8.171
   37MYC   9H12 3974   6.045   0.386   8.181
   37MYC   0H13 3975   6.065   0.567   8.168
   37MYC    C67 3976   6.216   0.447   8.285
   37MYC   7H12 3977   6.293   0.525   8.292
   37MYC   8H12 3978   6.253   0.345   8.273
   37MYC    C66 3979   6.141   0.462   8.418
   37MYC   5H12 3980   6.063   0.386   8.433
   37MYC   6H12 3981   6.092   0.560   8.415
   37MYC    C65 3982   6.245   0.463   8.532
   37MYC   3H12 3983   6.309   0.552   8.528
   37MYC   4H12 3984   6.302   0.371   8.513
   37MYC    C64 3985   6.170   0.459   8.666
   37MYC   1H12 3986   6.100   0.375   8.669
   37MYC   2H12 3987   6.107   0.548   8.681
   37MYC    C63 3988   6.270   0.430   8.779
   37MYC   9H11 3989   6.334   0.519   8.780
   37MYC   0H12 3990   6.343   0.352   8.754
   37MYC    C62 3991   6.216   0.400   8.920
   37MYC   7H11 3992   6.220   0.293   8.944
   37MYC   8H11 3993   6.115   0.441   8.940
   37MYC    C61 3994   6.309   0.451   9.031
   37MYC   5H11 3995   6.321   0.559   9.038
   37MYC   6H11 3996   6.404   0.400   9.011
   37MYC    C60 3997   6.242   0.410   9.162
   37MYC   4H11 3998   6.254   0.307   9.195
   37MYC    C58 3999   6.221   0.508   9.274
   37MYC   1H11 4000   6.255   0.610   9.259
   37MYC    C59 4001   6.104   0.463   9.190
   37MYC   2H11 4002   6.032   0.396   9.237
   37MYC   3H11 4003   6.061   0.550   9.141
   37MYC    C57 4004   6.242   0.454   9.415
   37MYC   9H10 4005   6.350   0.455   9.435
   37MYC   0H11 4006   6.217   0.348   9.428
   37MYC    C56 4007   6.164   0.538   9.518
   37MYC   7H10 4008   6.064   0.554   9.475
   37MYC   8H10 4009   6.192   0.643   9.529
   37MYC    C55 4010   6.186   0.475   9.656
   37MYC   5H10 4011   6.292   0.455   9.680
   37MYC   6H10 4012   6.140   0.376   9.652
   37MYC    C54 4013   6.126   0.552   9.775
   37MYC   3H10 4014   6.019   0.572   9.762
   37MYC   4H10 4015   6.174   0.651   9.782
   37MYC    C53 4016   6.152   0.472   9.904
   37MYC   1H10 4017   6.259   0.453   9.919
   37MYC   2H10 4018   6.104   0.373   9.899
   37MYC    C52 4019   6.092   0.550  10.022
   37MYC    H99 4020   5.991   0.583   9.995
   37MYC   0H10 4021   6.152   0.640  10.038
   37MYC    C51 4022   6.085   0.459  10.145
   37MYC    H97 4023   6.187   0.426  10.170
   37MYC    H98 4024   6.028   0.368  10.121
   37MYC    C50 4025   6.025   0.524  10.271
   37MYC    H95 4026   5.918   0.533  10.248
   37MYC    H96 4027   6.061   0.628  10.275
   37MYC    C49 4028   6.042   0.444  10.401
   37MYC    H93 4029   6.146   0.446  10.437
   37MYC    H94 4030   5.998   0.344  10.391
   37MYC    C48 4031   5.963   0.509  10.516
   37MYC    H91 4032   5.856   0.505  10.495
   37MYC    H92 4033   5.991   0.614  10.527
   37MYC    C47 4034   5.990   0.440  10.651
   37MYC    H89 4035   6.092   0.466  10.681
   37MYC    H90 4036   5.984   0.333  10.628
   37MYC    C46 4037   5.894   0.481  10.763
   37MYC    H87 4038   5.794   0.453  10.727
   37MYC    H88 4039   5.889   0.591  10.760
   37MYC    C45 4040   5.932   0.431  10.903
   37MYC    H85 4041   6.032   0.465  10.933
   37MYC    H86 4042   5.950   0.323  10.894
   37MYC    C44 4043   5.822   0.457  11.007
   37MYC    H83 4044   5.804   0.362  11.057
   37MYC    H84 4045   5.726   0.485  10.961
   37MYC    C18 4046   5.869   0.554  11.114
   37MYC    H31 4047   5.977   0.555  11.128
   37MYC    C17 4048   5.788   0.679  11.137
   37MYC    H30 4049   5.708   0.678  11.063
   37MYC    C19 4050   5.790   0.571  11.241
   37MYC    H32 4051   5.697   0.516  11.251
   37MYC    H33 4052   5.840   0.593  11.335
   37MYC    C16 4053   5.851   0.816  11.161
   37MYC    H28 4054   5.960   0.808  11.165
   37MYC    H29 4055   5.820   0.841  11.263
   37MYC    C15 4056   5.819   0.928  11.061
   37MYC    H26 4057   5.841   1.025  11.109
   37MYC    H27 4058   5.712   0.927  11.036
   37MYC    C14 4059   5.896   0.918  10.929
   37MYC    H24 4060   5.900   0.815  10.891
   37MYC    H25 4061   5.996   0.961  10.938
   37MYC    C13 4062   5.826   0.998  10.817
   37MYC    H22 4063   5.823   1.101  10.855
   37MYC    H23 4064   5.723   0.965  10.804
   37MYC    C12 4065   5.891   0.994  10.678
   37MYC    H20 4066   5.869   0.897  10.631
   37MYC    H21 4067   6.000   0.994  10.684
   37MYC    C11 4068   5.852   1.105  10.579
   37MYC    H18 4069   5.872   1.199  10.631
   37MYC    H19 4070   5.745   1.099  10.555
   37MYC    C10 4071   5.935   1.092  10.450
   37MYC    H16 4072   6.036   1.059  10.474
   37MYC    H17 4073   5.936   1.190  10.402
   37MYC     C9 4074   5.881   0.995  10.344
   37MYC    H14 4075   5.778   1.017  10.314
   37MYC    H15 4076   5.876   0.898  10.395
   37MYC     C8 4077   5.968   0.989  10.217
   37MYC    H12 4078   6.057   0.927  10.236
   37MYC    H13 4079   6.009   1.090  10.200
   37MYC     C7 4080   5.906   0.937  10.087
   37MYC    H10 4081   5.817   0.999  10.069
   37MYC    H11 4082   5.876   0.833  10.101
   37MYC     C6 4083   6.006   0.951   9.970
   37MYC     H8 4084   6.094   0.888   9.984
   37MYC     H9 4085   6.052   1.050   9.960
   37MYC     C5 4086   5.936   0.908   9.840
   37MYC     H6 4087   5.835   0.951   9.834
   37MYC     H7 4088   5.919   0.800   9.851
   37MYC     C4 4089   6.019   0.932   9.712
   37MYC     H4 4090   6.090   0.849   9.702
   37MYC     H5 4091   6.085   1.019   9.726
   37MYC     C2 4092   5.950   0.938   9.575
   37MYC     H2 4093   6.042   0.925   9.518
   37MYC     O3 4094   5.861   0.827   9.564
   37MYC     H3 4095   5.889   0.761   9.630
   37MYC     C1 4096   5.899   1.077   9.535
   37MYC     H1 4097   5.985   1.145   9.519
   37MYC    C81 4098   5.823   1.135   9.653
   37MYC    O82 4099   5.703   1.124   9.673
   37MYC    O83 4100   5.891   1.215   9.738
   37MYC   6H15 4101   5.829   1.254   9.803
   37MYC    C20 4102   5.817   1.081   9.405
   37MYC    H34 4103   5.741   1.001   9.408
   37MYC    H35 4104   5.761   1.175   9.405
   37MYC    C21 4105   5.915   1.080   9.286
   37MYC    H36 4106   5.983   1.166   9.292
   37MYC    H37 4107   5.965   0.983   9.294
   37MYC    C22 4108   5.842   1.101   9.153
   37MYC    H38 4109   5.771   1.017   9.145
   37MYC    H39 4110   5.784   1.195   9.150
   37MYC    C23 4111   5.941   1.083   9.036
   37MYC    H40 4112   6.026   1.150   9.051
   37MYC    H41 4113   5.978   0.979   9.040
   37MYC    C24 4114   5.875   1.100   8.898
   37MYC    H42 4115   5.771   1.067   8.912
   37MYC    H43 4116   5.866   1.208   8.882
   37MYC    C25 4117   5.941   1.019   8.785
   37MYC    H44 4118   6.043   1.050   8.758
   37MYC    H45 4119   5.953   0.921   8.833
   37MYC    C26 4120   5.861   1.013   8.653
   37MYC    H46 4121   5.766   0.961   8.672
   37MYC    H47 4122   5.836   1.111   8.611
   37MYC    C27 4123   5.933   0.929   8.546
   37MYC    H48 4124   6.032   0.970   8.521
   37MYC    H49 4125   5.960   0.830   8.587
   37MYC    C28 4126   5.849   0.926   8.418
   37MYC    H50 4127   5.755   0.874   8.441
   37MYC    H51 4128   5.827   1.028   8.385
   37MYC    C29 4129   5.915   0.838   8.310
   37MYC    H52 4130   6.022   0.862   8.306
   37MYC    H53 4131   5.901   0.733   8.338
   37MYC    C30 4132   5.855   0.874   8.173
   37MYC    H54 4133   5.746   0.860   8.177
   37MYC    H55 4134   5.869   0.981   8.152
   37MYC    C31 4135   5.912   0.792   8.056
   37MYC    H56 4136   6.022   0.792   8.055
   37MYC    H57 4137   5.887   0.686   8.055
   37MYC    C32 4138   5.863   0.861   7.927
   37MYC    H58 4139   5.756   0.885   7.931
   37MYC    H59 4140   5.912   0.959   7.919
   37MYC    C33 4141   5.904   0.784   7.801
   37MYC    H60 4142   6.012   0.766   7.808
   37MYC    H61 4143   5.850   0.690   7.786
   37MYC    C34 4144   5.876   0.876   7.680
   37MYC    H62 4145   5.784   0.933   7.701
   37MYC    H63 4146   5.953   0.953   7.669
   37MYC    C35 4147   5.866   0.789   7.554
   37MYC    H64 4148   5.954   0.725   7.537
   37MYC    H65 4149   5.780   0.722   7.569
   37MYC    C36 4150   5.856   0.877   7.428
   37MYC    H66 4151   5.778   0.953   7.441
   37MYC    H67 4152   5.949   0.935   7.422
   37MYC    C37 4153   5.854   0.797   7.296
   37MYC    H68 4154   5.936   0.724   7.302
   37MYC    H69 4155   5.758   0.745   7.297
   37MYC    C38 4156   5.861   0.885   7.171
   37MYC    H70 4157   5.769   0.944   7.163
   37MYC    H71 4158   5.942   0.960   7.175
   37MYC    C39 4159   5.876   0.806   7.040
   37MYC    H72 4160   5.960   0.736   7.029
   37MYC    H73 4161   5.789   0.739   7.039
   37MYC    C40 4162   5.872   0.896   6.915
   37MYC    H74 4163   5.781   0.957   6.910
   37MYC    H75 4164   5.955   0.967   6.915
   37MYC    C41 4165   5.894   0.811   6.788
   37MYC    H76 4166   5.994   0.766   6.796
   37MYC    H77 4167   5.821   0.730   6.790
   37MYC    C42 4168   5.883   0.893   6.658
   37MYC    H78 4169   5.781   0.917   6.628
   37MYC    H79 4170   5.924   0.994   6.673
   37MYC    C43 4171   5.961   0.824   6.545
   37MYC    H80 4172   5.976   0.889   6.458
   37MYC    H81 4173   5.896   0.741   6.513
   37MYC    H82 4174   6.061   0.788   6.572
   38MYC   5H15 4175   0.073   1.284   6.626
   38MYC    C80 4176   0.089   1.321   6.728
   38MYC   3H15 4177   0.195   1.346   6.735
   38MYC   4H15 4178   0.035   1.417   6.730
   38MYC    C79 4179   0.046   1.226   6.841
   38MYC   1H15 4180   0.114   1.141   6.826
   38MYC   2H15 4181  -0.056   1.201   6.810
   38MYC    C78 4182   0.064   1.289   6.980
   38MYC   9H14 4183  -0.005   1.374   6.993
   38MYC   0H15 4184   0.164   1.333   6.985
   38MYC    C77 4185   0.048   1.191   7.098
   38MYC   7H14 4186   0.113   1.107   7.070
   38MYC   8H14 4187  -0.060   1.170   7.096
   38MYC    C76 4188   0.093   1.249   7.233
   38MYC   5H14 4189   0.025   1.327   7.269
   38MYC   6H14 4190   0.182   1.312   7.220
   38MYC    C75 4191   0.107   1.143   7.343
   38MYC   3H14 4192   0.111   1.040   7.305
   38MYC   4H14 4193   0.029   1.160   7.419
   38MYC    C74 4194   0.236   1.178   7.419
   38MYC   1H14 4195   0.238   1.286   7.440
   38MYC   2H14 4196   0.320   1.149   7.354
   38MYC    C73 4197   0.236   1.103   7.553
   38MYC   9H13 4198   0.231   0.994   7.549
   38MYC   0H14 4199   0.145   1.137   7.605
   38MYC    C72 4200   0.364   1.134   7.634
   38MYC   7H13 4201   0.382   1.242   7.626
   38MYC   8H13 4202   0.445   1.080   7.583
   38MYC    C71 4203   0.351   1.090   7.781
   38MYC   5H13 4204   0.334   0.982   7.786
   38MYC   6H13 4205   0.255   1.128   7.818
   38MYC    C70 4206   0.464   1.138   7.872
   38MYC   3H13 4207   0.482   1.246   7.869
   38MYC   4H13 4208   0.561   1.093   7.844
   38MYC    C69 4209   0.445   1.096   8.019
   38MYC   1H13 4210   0.516   1.015   8.041
   38MYC   2H13 4211   0.344   1.061   8.041
   38MYC    C68 4212   0.497   1.196   8.124
   38MYC   9H12 4213   0.422   1.275   8.113
   38MYC   0H13 4214   0.599   1.234   8.107
   38MYC    C67 4215   0.490   1.133   8.264
   38MYC   7H12 4216   0.577   1.069   8.284
   38MYC   8H12 4217   0.413   1.055   8.264
   38MYC    C66 4218   0.465   1.232   8.379
   38MYC   5H12 4219   0.361   1.266   8.376
   38MYC   6H12 4220   0.531   1.320   8.377
   38MYC    C65 4221   0.468   1.153   8.511
   38MYC   3H12 4222   0.564   1.099   8.518
   38MYC   4H12 4223   0.392   1.074   8.514
   38MYC    C64 4224   0.463   1.237   8.640
   38MYC   1H12 4225   0.371   1.298   8.641
   38MYC   2H12 4226   0.550   1.302   8.627
   38MYC    C63 4227   0.482   1.160   8.772
   38MYC   9H11 4228   0.567   1.092   8.757
   38MYC   0H12 4229   0.399   1.092   8.791
   38MYC    C62 4230   0.512   1.262   8.883
   38MYC   7H11 4231   0.449   1.350   8.867
   38MYC   8H11 4232   0.614   1.302   8.880
   38MYC    C61 4233   0.488   1.196   9.020
   38MYC   5H11 4234   0.563   1.118   9.040
   38MYC   6H11 4235   0.393   1.144   9.004
   38MYC    C60 4236   0.490   1.287   9.142
   38MYC   4H11 4237   0.412   1.362   9.133
   38MYC    C58 4238   0.546   1.256   9.279
   38MYC   1H11 4239   0.599   1.164   9.298
   38MYC    C59 4240   0.618   1.352   9.187
   38MYC   2H11 4241   0.604   1.459   9.197
   38MYC   3H11 4242   0.711   1.319   9.140
   38MYC    C57 4243   0.464   1.299   9.400
   38MYC   9H10 4244   0.413   1.390   9.366
   38MYC   0H11 4245   0.538   1.328   9.475
   38MYC    C56 4246   0.383   1.190   9.473
   38MYC   7H10 4247   0.448   1.104   9.492
   38MYC   8H10 4248   0.303   1.166   9.402
   38MYC    C55 4249   0.318   1.238   9.604
   38MYC   5H10 4250   0.229   1.175   9.617
   38MYC   6H10 4251   0.272   1.337   9.595
   38MYC    C54 4252   0.404   1.228   9.731
   38MYC   3H10 4253   0.467   1.318   9.719
   38MYC   4H10 4254   0.463   1.136   9.731
   38MYC    C53 4255   0.312   1.240   9.854
   38MYC   1H10 4256   0.258   1.145   9.863
   38MYC   2H10 4257   0.236   1.316   9.833
   38MYC    C52 4258   0.382   1.271   9.988
   38MYC    H99 4259   0.413   1.375  10.001
   38MYC   0H10 4260   0.469   1.206   9.998
   38MYC    C51 4261   0.294   1.228  10.106
   38MYC    H97 4262   0.331   1.130  10.140
   38MYC    H98 4263   0.188   1.217  10.079
   38MYC    C50 4264   0.311   1.323  10.226
   38MYC    H95 4265   0.243   1.409  10.218
   38MYC    H96 4266   0.416   1.356  10.228
   38MYC    C49 4267   0.270   1.248  10.354
   38MYC    H93 4268   0.354   1.183  10.382
   38MYC    H94 4269   0.185   1.180  10.340
   38MYC    C48 4270   0.238   1.343  10.471
   38MYC    H91 4271   0.155   1.406  10.438
   38MYC    H92 4272   0.332   1.399  10.483
   38MYC    C47 4273   0.207   1.269  10.602
   38MYC    H89 4274   0.298   1.217  10.635
   38MYC    H90 4275   0.117   1.208  10.585
   38MYC    C46 4276   0.171   1.372  10.711
   38MYC    H87 4277   0.109   1.452  10.668
   38MYC    H88 4278   0.266   1.425  10.729
   38MYC    C45 4279   0.116   1.306  10.838
   38MYC    H85 4280   0.193   1.241  10.881
   38MYC    H86 4281   0.029   1.245  10.811
   38MYC    C44 4282   0.077   1.397  10.956
   38MYC    H83 4283   0.015   1.333  11.020
   38MYC    H84 4284   0.012   1.475  10.914
   38MYC    C18 4285   0.186   1.451  11.047
   38MYC    H31 4286   0.239   1.369  11.095
   38MYC    C17 4287   0.244   1.587  11.019
   38MYC    H30 4288   0.198   1.634  10.932
   38MYC    C19 4289   0.151   1.568  11.136
   38MYC    H32 4290   0.052   1.609  11.121
   38MYC    H33 4291   0.188   1.577  11.238
   38MYC    C16 4292   0.393   1.615  11.025
   38MYC    H28 4293   0.450   1.521  11.020
   38MYC    H29 4294   0.421   1.663  11.119
   38MYC    C15 4295   0.460   1.712  10.925
   38MYC    H26 4296   0.569   1.712  10.931
   38MYC    H27 4297   0.432   1.814  10.954
   38MYC    C14 4298   0.410   1.698  10.780
   38MYC    H24 4299   0.302   1.714  10.776
   38MYC    H25 4300   0.430   1.595  10.746
   38MYC    C13 4301   0.482   1.795  10.685
   38MYC    H22 4302   0.591   1.780  10.688
   38MYC    H23 4303   0.473   1.898  10.722
   38MYC    C12 4304   0.429   1.791  10.541
   38MYC    H20 4305   0.323   1.762  10.538
   38MYC    H21 4306   0.486   1.710  10.493
   38MYC    C11 4307   0.456   1.920  10.461
   38MYC    H18 4308   0.561   1.923  10.432
   38MYC    H19 4309   0.455   2.012  10.520
   38MYC    C10 4310   0.359   1.937  10.342
   38MYC    H16 4311   0.381   2.032  10.292
   38MYC    H17 4312   0.257   1.949  10.379
   38MYC     C9 4313   0.327   1.825  10.242
   38MYC    H14 4314   0.265   1.743  10.281
   38MYC    H15 4315   0.415   1.766  10.212
   38MYC     C8 4316   0.261   1.880  10.115
   38MYC    H12 4317   0.311   1.966  10.070
   38MYC    H13 4318   0.155   1.903  10.133
   38MYC     C7 4319   0.253   1.783   9.996
   38MYC    H10 4320   0.184   1.701  10.018
   38MYC    H11 4321   0.354   1.739   9.985
   38MYC     C6 4322   0.218   1.852   9.863
   38MYC     H8 4323   0.283   1.938   9.842
   38MYC     H9 4324   0.121   1.899   9.884
   38MYC     C5 4325   0.218   1.753   9.746
   38MYC     H6 4326   0.203   1.817   9.657
   38MYC     H7 4327   0.128   1.690   9.750
   38MYC     C4 4328   0.352   1.684   9.719
   38MYC     H4 4329   0.338   1.600   9.650
   38MYC     H5 4330   0.392   1.630   9.806
   38MYC     C2 4331   0.460   1.768   9.648
   38MYC     H2 4332   0.405   1.802   9.559
   38MYC     O3 4333   0.511   1.874   9.727
   38MYC     H3 4334   0.450   1.949   9.733
   38MYC     C1 4335   0.579   1.690   9.589
   38MYC     H1 4336   0.544   1.591   9.557
   38MYC    C81 4337   0.675   1.657   9.704
   38MYC    O82 4338   0.785   1.708   9.710
   38MYC    O83 4339   0.647   1.538   9.762
   38MYC   6H15 4340   0.728   1.502   9.802
   38MYC    C20 4341   0.645   1.759   9.469
   38MYC    H34 4342   0.654   1.864   9.497
   38MYC    H35 4343   0.749   1.725   9.454
   38MYC    C21 4344   0.568   1.750   9.336
   38MYC    H36 4345   0.523   1.650   9.323
   38MYC    H37 4346   0.484   1.820   9.341
   38MYC    C22 4347   0.649   1.791   9.212
   38MYC    H38 4348   0.670   1.899   9.212
   38MYC    H39 4349   0.745   1.740   9.222
   38MYC    C23 4350   0.571   1.755   9.085
   38MYC    H40 4351   0.589   1.647   9.070
   38MYC    H41 4352   0.463   1.770   9.098
   38MYC    C24 4353   0.620   1.827   8.959
   38MYC    H42 4354   0.616   1.936   8.975
   38MYC    H43 4355   0.724   1.795   8.940
   38MYC    C25 4356   0.527   1.802   8.840
   38MYC    H44 4357   0.508   1.694   8.840
   38MYC    H45 4358   0.424   1.840   8.852
   38MYC    C26 4359   0.584   1.856   8.708
   38MYC    H46 4360   0.591   1.966   8.703
   38MYC    H47 4361   0.686   1.818   8.694
   38MYC    C27 4362   0.494   1.810   8.592
   38MYC    H48 4363   0.468   1.703   8.601
   38MYC    H49 4364   0.393   1.854   8.598
   38MYC    C28 4365   0.546   1.831   8.449
   38MYC    H50 4366   0.532   1.939   8.438
   38MYC    H51 4367   0.649   1.794   8.446
   38MYC    C29 4368   0.461   1.756   8.345
   38MYC    H52 4369   0.467   1.648   8.358
   38MYC    H53 4370   0.357   1.792   8.345
   38MYC    C30 4371   0.519   1.772   8.203
   38MYC    H54 4372   0.540   1.879   8.192
   38MYC    H55 4373   0.617   1.724   8.199
   38MYC    C31 4374   0.409   1.729   8.104
   38MYC    H56 4375   0.367   1.630   8.123
   38MYC    H57 4376   0.331   1.805   8.118
   38MYC    C32 4377   0.467   1.735   7.962
   38MYC    H58 4378   0.497   1.838   7.937
   38MYC    H59 4379   0.557   1.673   7.958
   38MYC    C33 4380   0.353   1.688   7.869
   38MYC    H60 4381   0.334   1.582   7.889
   38MYC    H61 4382   0.261   1.745   7.881
   38MYC    C34 4383   0.394   1.703   7.722
   38MYC    H62 4384   0.394   1.812   7.704
   38MYC    H63 4385   0.488   1.648   7.717
   38MYC    C35 4386   0.299   1.639   7.619
   38MYC    H64 4387   0.331   1.535   7.605
   38MYC    H65 4388   0.198   1.637   7.659
   38MYC    C36 4389   0.314   1.707   7.482
   38MYC    H66 4390   0.260   1.803   7.483
   38MYC    H67 4391   0.419   1.732   7.466
   38MYC    C37 4392   0.269   1.632   7.355
   38MYC    H68 4393   0.301   1.528   7.362
   38MYC    H69 4394   0.160   1.623   7.346
   38MYC    C38 4395   0.320   1.696   7.225
   38MYC    H70 4396   0.255   1.783   7.216
   38MYC    H71 4397   0.424   1.729   7.241
   38MYC    C39 4398   0.312   1.597   7.107
   38MYC    H72 4399   0.387   1.518   7.117
   38MYC    H73 4400   0.219   1.538   7.104
   38MYC    C40 4401   0.329   1.681   6.979
   38MYC    H74 4402   0.252   1.758   6.967
   38MYC    H75 4403   0.419   1.744   6.978
   38MYC    C41 4404   0.329   1.595   6.852
   38MYC    H76 4405   0.416   1.529   6.862
   38MYC    H77 4406   0.238   1.534   6.840
   38MYC    C42 4407   0.353   1.677   6.724
   38MYC    H78 4408   0.258   1.725   6.698
   38MYC    H79 4409   0.428   1.753   6.749
   38MYC    C43 4410   0.403   1.589   6.607
   38MYC    H80 4411   0.402   1.655   6.519
   38MYC    H81 4412   0.344   1.498   6.591
   38MYC    H82 4413   0.508   1.562   6.621
   39MYC   5H15 4414   1.228   1.763   6.669
   39MYC    C80 4415   1.284   1.752   6.763
   39MYC   3H15 4416   1.339   1.657   6.757
   39MYC   4H15 4417   1.358   1.831   6.782
   39MYC    C79 4418   1.181   1.758   6.877
   39MYC   1H15 4419   1.106   1.678   6.867
   39MYC   2H15 4420   1.123   1.850   6.869
   39MYC    C78 4421   1.243   1.741   7.017
   39MYC   9H14 4422   1.332   1.804   7.029
   39MYC   0H15 4423   1.288   1.641   7.022
   39MYC    C77 4424   1.142   1.772   7.129
   39MYC   7H14 4425   1.045   1.729   7.100
   39MYC   8H14 4426   1.128   1.880   7.138
   39MYC    C76 4427   1.192   1.722   7.265
   39MYC   5H14 4428   1.294   1.756   7.287
   39MYC   6H14 4429   1.196   1.612   7.266
   39MYC    C75 4430   1.097   1.758   7.381
   39MYC   3H14 4431   0.998   1.710   7.371
   39MYC   4H14 4432   1.082   1.866   7.383
   39MYC    C74 4433   1.148   1.718   7.520
   39MYC   1H14 4434   1.256   1.736   7.530
   39MYC   2H14 4435   1.134   1.610   7.527
   39MYC    C73 4436   1.080   1.786   7.640
   39MYC   9H13 4437   0.971   1.778   7.630
   39MYC   0H14 4438   1.116   1.889   7.647
   39MYC    C72 4439   1.139   1.735   7.773
   39MYC   7H13 4440   1.248   1.744   7.764
   39MYC   8H13 4441   1.121   1.630   7.798
   39MYC    C71 4442   1.100   1.824   7.892
   39MYC   5H13 4443   0.993   1.836   7.913
   39MYC   6H13 4444   1.145   1.922   7.871
   39MYC    C70 4445   1.164   1.771   8.022
   39MYC   3H13 4446   1.273   1.781   8.023
   39MYC   4H13 4447   1.150   1.663   8.032
   39MYC    C69 4448   1.105   1.840   8.146
   39MYC   1H13 4449   0.996   1.825   8.146
   39MYC   2H13 4450   1.131   1.946   8.137
   39MYC    C68 4451   1.150   1.796   8.287
   39MYC   9H12 4452   1.258   1.811   8.293
   39MYC   0H13 4453   1.142   1.690   8.313
   39MYC    C67 4454   1.089   1.878   8.402
   39MYC   7H12 4455   0.981   1.890   8.385
   39MYC   8H12 4456   1.128   1.980   8.392
   39MYC    C66 4457   1.125   1.826   8.542
   39MYC   5H12 4458   1.232   1.820   8.566
   39MYC   6H12 4459   1.088   1.722   8.545
   39MYC    C65 4460   1.051   1.909   8.648
   39MYC   3H12 4461   0.945   1.883   8.654
   39MYC   4H12 4462   1.056   2.018   8.636
   39MYC    C64 4463   1.113   1.890   8.788
   39MYC   1H12 4464   1.222   1.875   8.784
   39MYC   2H12 4465   1.074   1.795   8.827
   39MYC    C63 4466   1.094   2.002   8.891
   39MYC   9H11 4467   0.990   1.991   8.921
   39MYC   0H12 4468   1.115   2.102   8.850
   39MYC    C62 4469   1.183   1.979   9.014
   39MYC   7H11 4470   1.284   2.020   8.998
   39MYC   8H11 4471   1.193   1.870   9.023
   39MYC    C61 4472   1.132   2.034   9.149
   39MYC   5H11 4473   1.028   2.001   9.162
   39MYC   6H11 4474   1.123   2.143   9.145
   39MYC    C60 4475   1.229   2.005   9.263
   39MYC   4H11 4476   1.331   2.037   9.243
   39MYC    C58 4477   1.185   2.013   9.407
   39MYC   1H11 4478   1.082   2.040   9.433
   39MYC    C59 4479   1.213   1.879   9.344
   39MYC   2H11 4480   1.308   1.829   9.361
   39MYC   3H11 4481   1.132   1.811   9.319
   39MYC    C57 4482   1.279   2.055   9.520
   39MYC   9H10 4483   1.243   2.149   9.562
   39MYC   0H11 4484   1.371   2.092   9.474
   39MYC    C56 4485   1.315   1.945   9.621
   39MYC   7H10 4486   1.409   1.895   9.594
   39MYC   8H10 4487   1.239   1.866   9.621
   39MYC    C55 4488   1.331   1.994   9.766
   39MYC   5H10 4489   1.250   2.064   9.789
   39MYC   6H10 4490   1.426   2.049   9.769
   39MYC    C54 4491   1.333   1.886   9.875
   39MYC   3H10 4492   1.423   1.826   9.855
   39MYC   4H10 4493   1.246   1.825   9.847
   39MYC    C53 4494   1.343   1.933  10.021
   39MYC   1H10 4495   1.282   2.023  10.038
   39MYC   2H10 4496   1.445   1.971  10.030
   39MYC    C52 4497   1.327   1.825  10.130
   39MYC    H99 4498   1.398   1.743  10.114
   39MYC   0H10 4499   1.221   1.798  10.134
   39MYC    C51 4500   1.379   1.883  10.263
   39MYC    H97 4501   1.328   1.979  10.279
   39MYC    H98 4502   1.487   1.897  10.250
   39MYC    C50 4503   1.357   1.795  10.387
   39MYC    H95 4504   1.417   1.703  10.387
   39MYC    H96 4505   1.249   1.778  10.375
   39MYC    C49 4506   1.387   1.869  10.519
   39MYC    H93 4507   1.338   1.967  10.513
   39MYC    H94 4508   1.496   1.874  10.521
   39MYC    C48 4509   1.332   1.787  10.637
   39MYC    H91 4510   1.369   1.683  10.637
   39MYC    H92 4511   1.224   1.790  10.622
   39MYC    C47 4512   1.361   1.860  10.769
   39MYC    H89 4513   1.307   1.953  10.790
   39MYC    H90 4514   1.468   1.881  10.776
   39MYC    C46 4515   1.308   1.774  10.885
   39MYC    H87 4516   1.351   1.673  10.876
   39MYC    H88 4517   1.199   1.764  10.872
   39MYC    C45 4518   1.346   1.834  11.021
   39MYC    H85 4519   1.287   1.926  11.029
   39MYC    H86 4520   1.449   1.872  11.030
   39MYC    C44 4521   1.319   1.746  11.144
   39MYC    H83 4522   1.353   1.810  11.227
   39MYC    H84 4523   1.380   1.655  11.142
   39MYC    C18 4524   1.173   1.708  11.166
   39MYC    H31 4525   1.105   1.791  11.183
   39MYC    C17 4526   1.111   1.590  11.094
   39MYC    H30 4527   1.172   1.533  11.024
   39MYC    C19 4528   1.146   1.579  11.240
   39MYC    H32 4529   1.235   1.525  11.270
   39MYC    H33 4530   1.064   1.571  11.312
   39MYC    C16 4531   0.964   1.582  11.056
   39MYC    H28 4532   0.917   1.676  11.025
   39MYC    H29 4533   0.902   1.560  11.144
   39MYC    C15 4534   0.954   1.477  10.944
   39MYC    H26 4535   0.974   1.376  10.981
   39MYC    H27 4536   1.025   1.503  10.864
   39MYC    C14 4537   0.817   1.466  10.875
   39MYC    H24 4538   0.775   1.567  10.863
   39MYC    H25 4539   0.750   1.423  10.950
   39MYC    C13 4540   0.826   1.384  10.745
   39MYC    H22 4541   0.843   1.278  10.768
   39MYC    H23 4542   0.905   1.418  10.677
   39MYC    C12 4543   0.694   1.390  10.667
   39MYC    H20 4544   0.681   1.493  10.633
   39MYC    H21 4545   0.615   1.364  10.739
   39MYC    C11 4546   0.700   1.292  10.548
   39MYC    H18 4547   0.633   1.329  10.470
   39MYC    H19 4548   0.646   1.204  10.585
   39MYC    C10 4549   0.834   1.247  10.487
   39MYC    H16 4550   0.806   1.162  10.424
   39MYC    H17 4551   0.908   1.205  10.556
   39MYC     C9 4552   0.897   1.354  10.395
   39MYC    H14 4553   0.882   1.454  10.437
   39MYC    H15 4554   0.836   1.366  10.305
   39MYC     C8 4555   1.042   1.325  10.352
   39MYC    H12 4556   1.059   1.220  10.326
   39MYC    H13 4557   1.109   1.349  10.435
   39MYC     C7 4558   1.080   1.419  10.236
   39MYC    H10 4559   1.186   1.410  10.209
   39MYC    H11 4560   1.061   1.523  10.265
   39MYC     C6 4561   0.997   1.407  10.108
   39MYC     H8 4562   0.905   1.466  10.116
   39MYC     H9 4563   0.968   1.301  10.097
   39MYC     C5 4564   1.080   1.439   9.982
   39MYC     H6 4565   1.182   1.399   9.982
   39MYC     H7 4566   1.089   1.547   9.967
   39MYC     C4 4567   0.996   1.393   9.861
   39MYC     H4 4568   0.898   1.442   9.857
   39MYC     H5 4569   0.982   1.285   9.871
   39MYC     C2 4570   1.068   1.428   9.729
   39MYC     H2 4571   1.093   1.535   9.732
   39MYC     O3 4572   1.187   1.352   9.726
   39MYC     H3 4573   1.167   1.268   9.682
   39MYC     C1 4574   0.983   1.400   9.604
   39MYC     H1 4575   0.891   1.460   9.610
   39MYC    C81 4576   0.935   1.256   9.604
   39MYC    O82 4577   0.820   1.227   9.631
   39MYC    O83 4578   1.030   1.163   9.582
   39MYC   6H15 4579   0.982   1.078   9.576
   39MYC    C20 4580   1.059   1.426   9.473
   39MYC    H34 4581   1.124   1.514   9.480
   39MYC    H35 4582   1.128   1.346   9.445
   39MYC    C21 4583   0.961   1.449   9.358
   39MYC    H36 4584   0.884   1.370   9.360
   39MYC    H37 4585   0.915   1.546   9.380
   39MYC    C22 4586   1.025   1.452   9.218
   39MYC    H38 4587   1.116   1.511   9.235
   39MYC    H39 4588   1.067   1.354   9.193
   39MYC    C23 4589   0.931   1.517   9.115
   39MYC    H40 4590   0.828   1.500   9.148
   39MYC    H41 4591   0.947   1.625   9.116
   39MYC    C24 4592   0.959   1.463   8.974
   39MYC    H42 4593   1.065   1.485   8.952
   39MYC    H43 4594   0.951   1.354   8.979
   39MYC    C25 4595   0.871   1.516   8.860
   39MYC    H44 4596   0.766   1.508   8.891
   39MYC    H45 4597   0.897   1.621   8.839
   39MYC    C26 4598   0.894   1.436   8.731
   39MYC    H46 4599   0.999   1.404   8.724
   39MYC    H47 4600   0.830   1.348   8.742
   39MYC    C27 4601   0.851   1.503   8.599
   39MYC    H48 4602   0.748   1.539   8.604
   39MYC    H49 4603   0.910   1.592   8.575
   39MYC    C28 4604   0.866   1.403   8.482
   39MYC    H50 4605   0.970   1.370   8.484
   39MYC    H51 4606   0.793   1.321   8.488
   39MYC    C29 4607   0.849   1.467   8.344
   39MYC    H52 4608   0.776   1.547   8.328
   39MYC    H53 4609   0.937   1.530   8.329
   39MYC    C30 4610   0.826   1.368   8.228
   39MYC    H54 4611   0.884   1.275   8.232
   39MYC    H55 4612   0.719   1.344   8.240
   39MYC    C31 4613   0.855   1.447   8.100
   39MYC    H56 4614   0.802   1.543   8.093
   39MYC    H57 4615   0.960   1.479   8.096
   39MYC    C32 4616   0.815   1.375   7.970
   39MYC    H58 4617   0.828   1.266   7.974
   39MYC    H59 4618   0.708   1.387   7.948
   39MYC    C33 4619   0.884   1.423   7.841
   39MYC    H60 4620   0.859   1.528   7.820
   39MYC    H61 4621   0.993   1.420   7.853
   39MYC    C34 4622   0.867   1.334   7.718
   39MYC    H62 4623   0.893   1.230   7.744
   39MYC    H63 4624   0.763   1.320   7.688
   39MYC    C35 4625   0.954   1.376   7.598
   39MYC    H64 4626   0.934   1.483   7.582
   39MYC    H65 4627   1.061   1.374   7.624
   39MYC    C36 4628   0.932   1.299   7.467
   39MYC    H66 4629   0.964   1.196   7.487
   39MYC    H67 4630   0.823   1.297   7.457
   39MYC    C37 4631   0.987   1.354   7.334
   39MYC    H68 4632   0.922   1.434   7.297
   39MYC    H69 4633   1.083   1.403   7.355
   39MYC    C38 4634   1.008   1.247   7.225
   39MYC    H70 4635   1.095   1.186   7.251
   39MYC    H71 4636   0.922   1.179   7.218
   39MYC    C39 4637   1.033   1.322   7.093
   39MYC    H72 4638   0.950   1.384   7.057
   39MYC    H73 4639   1.121   1.386   7.109
   39MYC    C40 4640   1.059   1.217   6.984
   39MYC    H74 4641   1.113   1.125   7.010
   39MYC    H75 4642   0.962   1.172   6.959
   39MYC    C41 4643   1.135   1.281   6.867
   39MYC    H76 4644   1.082   1.370   6.834
   39MYC    H77 4645   1.233   1.315   6.902
   39MYC    C42 4646   1.160   1.194   6.742
   39MYC    H78 4647   1.188   1.092   6.772
   39MYC    H79 4648   1.065   1.190   6.686
   39MYC    C43 4649   1.283   1.239   6.662
   39MYC    H80 4650   1.312   1.165   6.586
   39MYC    H81 4651   1.367   1.255   6.731
   39MYC    H82 4652   1.265   1.330   6.603
   40MYC   5H15 4653   2.089   1.913   6.607
   40MYC    C80 4654   2.128   1.893   6.708
   40MYC   3H15 4655   2.182   1.798   6.704
   40MYC   4H15 4656   2.197   1.969   6.747
   40MYC    C79 4657   2.015   1.870   6.810
   40MYC   1H15 4658   1.953   1.785   6.778
   40MYC   2H15 4659   1.948   1.957   6.807
   40MYC    C78 4660   2.072   1.835   6.949
   40MYC   9H14 4661   2.113   1.922   7.002
   40MYC   0H15 4662   2.154   1.764   6.933
   40MYC    C77 4663   1.974   1.761   7.040
   40MYC   7H14 4664   1.950   1.664   6.994
   40MYC   8H14 4665   1.879   1.815   7.047
   40MYC    C76 4666   2.033   1.726   7.178
   40MYC   5H14 4667   2.098   1.809   7.205
   40MYC   6H14 4668   2.088   1.631   7.187
   40MYC    C75 4669   1.928   1.720   7.290
   40MYC   3H14 4670   1.860   1.634   7.282
   40MYC   4H14 4671   1.875   1.816   7.301
   40MYC    C74 4672   1.992   1.699   7.428
   40MYC   1H14 4673   2.047   1.792   7.446
   40MYC   2H14 4674   2.071   1.624   7.414
   40MYC    C73 4675   1.896   1.662   7.543
   40MYC   9H13 4676   1.841   1.570   7.518
   40MYC   0H14 4677   1.820   1.742   7.537
   40MYC    C72 4678   1.956   1.642   7.682
   40MYC   7H13 4679   2.020   1.724   7.718
   40MYC   8H13 4680   2.017   1.551   7.677
   40MYC    C71 4681   1.852   1.605   7.790
   40MYC   5H13 4682   1.800   1.513   7.762
   40MYC   6H13 4683   1.777   1.684   7.781
   40MYC    C70 4684   1.913   1.611   7.931
   40MYC   3H13 4685   1.963   1.705   7.957
   40MYC   4H13 4686   1.988   1.531   7.932
   40MYC    C69 4687   1.808   1.577   8.039
   40MYC   1H13 4688   1.771   1.475   8.022
   40MYC   2H13 4689   1.724   1.645   8.024
   40MYC    C68 4690   1.862   1.584   8.182
   40MYC   9H12 4691   1.917   1.679   8.188
   40MYC   0H13 4692   1.934   1.504   8.206
   40MYC    C67 4693   1.762   1.590   8.299
   40MYC   7H12 4694   1.700   1.500   8.298
   40MYC   8H12 4695   1.692   1.672   8.278
   40MYC    C66 4696   1.826   1.615   8.437
   40MYC   5H12 4697   1.884   1.707   8.424
   40MYC   6H12 4698   1.882   1.523   8.451
   40MYC    C65 4699   1.724   1.641   8.549
   40MYC   3H12 4700   1.662   1.552   8.571
   40MYC   4H12 4701   1.656   1.724   8.526
   40MYC    C64 4702   1.794   1.673   8.682
   40MYC   1H12 4703   1.832   1.775   8.670
   40MYC   2H12 4704   1.874   1.603   8.708
   40MYC    C63 4705   1.696   1.667   8.801
   40MYC   9H11 4706   1.651   1.571   8.828
   40MYC   0H12 4707   1.616   1.741   8.786
   40MYC    C62 4708   1.773   1.696   8.931
   40MYC   7H11 4709   1.817   1.796   8.917
   40MYC   8H11 4710   1.856   1.624   8.928
   40MYC    C61 4711   1.683   1.698   9.056
   40MYC   5H11 4712   1.633   1.602   9.073
   40MYC   6H11 4713   1.602   1.770   9.040
   40MYC    C60 4714   1.770   1.725   9.178
   40MYC   4H11 4715   1.839   1.809   9.182
   40MYC    C58 4716   1.714   1.676   9.309
   40MYC   1H11 4717   1.619   1.623   9.316
   40MYC    C59 4718   1.830   1.603   9.245
   40MYC   2H11 4719   1.920   1.602   9.305
   40MYC   3H11 4720   1.822   1.507   9.195
   40MYC    C57 4721   1.737   1.759   9.434
   40MYC   9H10 4722   1.682   1.853   9.420
   40MYC   0H11 4723   1.842   1.786   9.449
   40MYC    C56 4724   1.691   1.683   9.560
   40MYC   7H10 4725   1.730   1.581   9.558
   40MYC   8H10 4726   1.582   1.671   9.550
   40MYC    C55 4727   1.706   1.756   9.695
   40MYC   5H10 4728   1.644   1.847   9.701
   40MYC   6H10 4729   1.812   1.783   9.702
   40MYC    C54 4730   1.680   1.656   9.808
   40MYC   3H10 4731   1.738   1.568   9.777
   40MYC   4H10 4732   1.576   1.621   9.813
   40MYC    C53 4733   1.730   1.695   9.948
   40MYC   1H10 4734   1.698   1.795   9.980
   40MYC   2H10 4735   1.837   1.712   9.931
   40MYC    C52 4736   1.695   1.601  10.064
   40MYC    H99 4737   1.758   1.515  10.039
   40MYC   0H10 4738   1.592   1.563  10.059
   40MYC    C51 4739   1.728   1.652  10.205
   40MYC    H97 4740   1.696   1.756  10.220
   40MYC    H98 4741   1.837   1.655  10.210
   40MYC    C50 4742   1.682   1.556  10.316
   40MYC    H95 4743   1.722   1.454  10.313
   40MYC    H96 4744   1.572   1.555  10.318
   40MYC    C49 4745   1.723   1.620  10.449
   40MYC    H93 4746   1.679   1.720  10.450
   40MYC    H94 4747   1.828   1.651  10.452
   40MYC    C48 4748   1.684   1.541  10.575
   40MYC    H91 4749   1.752   1.456  10.580
   40MYC    H92 4750   1.579   1.509  10.564
   40MYC    C47 4751   1.701   1.623  10.704
   40MYC    H89 4752   1.645   1.587  10.792
   40MYC    H90 4753   1.668   1.724  10.678
   40MYC    C46 4754   1.845   1.634  10.757
   40MYC    H87 4755   1.910   1.685  10.685
   40MYC    H88 4756   1.889   1.533  10.767
   40MYC    C45 4757   1.851   1.710  10.891
   40MYC    H85 4758   1.750   1.731  10.927
   40MYC    H86 4759   1.901   1.807  10.881
   40MYC    C44 4760   1.919   1.630  11.004
   40MYC    H83 4761   1.924   1.689  11.096
   40MYC    H84 4762   2.019   1.608  10.965
   40MYC    C18 4763   1.857   1.503  11.059
   40MYC    H31 4764   1.775   1.461  11.001
   40MYC    C17 4765   1.947   1.402  11.127
   40MYC    H30 4766   2.047   1.440  11.148
   40MYC    C19 4767   1.846   1.480  11.208
   40MYC    H32 4768   1.896   1.546  11.278
   40MYC    H33 4769   1.758   1.432  11.249
   40MYC    C16 4770   1.928   1.253  11.108
   40MYC    H28 4771   1.823   1.228  11.087
   40MYC    H29 4772   1.953   1.206  11.203
   40MYC    C15 4773   2.006   1.179  10.997
   40MYC    H26 4774   1.999   1.071  11.014
   40MYC    H27 4775   2.112   1.206  10.996
   40MYC    C14 4776   1.961   1.208  10.853
   40MYC    H24 4777   1.982   1.313  10.826
   40MYC    H25 4778   1.852   1.211  10.843
   40MYC    C13 4779   2.015   1.111  10.747
   40MYC    H22 4780   1.941   1.031  10.733
   40MYC    H23 4781   2.110   1.065  10.776
   40MYC    C12 4782   2.028   1.171  10.606
   40MYC    H20 4783   2.109   1.245  10.616
   40MYC    H21 4784   1.938   1.229  10.584
   40MYC    C11 4785   2.063   1.064  10.501
   40MYC    H18 4786   1.980   0.993  10.505
   40MYC    H19 4787   2.144   1.005  10.545
   40MYC    C10 4788   2.091   1.110  10.357
   40MYC    H16 4789   2.101   1.023  10.291
   40MYC    H17 4790   2.190   1.158  10.351
   40MYC     C9 4791   1.979   1.195  10.294
   40MYC    H14 4792   2.005   1.197  10.187
   40MYC    H15 4793   1.984   1.295  10.338
   40MYC     C8 4794   1.835   1.144  10.312
   40MYC    H12 4795   1.788   1.207  10.389
   40MYC    H13 4796   1.828   1.045  10.358
   40MYC     C7 4797   1.740   1.157  10.192
   40MYC    H10 4798   1.723   1.264  10.172
   40MYC    H11 4799   1.637   1.129  10.215
   40MYC     C6 4800   1.781   1.083  10.063
   40MYC     H8 4801   1.764   0.976  10.085
   40MYC     H9 4802   1.887   1.094  10.038
   40MYC     C5 4803   1.711   1.131   9.935
   40MYC     H6 4804   1.733   1.234   9.906
   40MYC     H7 4805   1.604   1.136   9.960
   40MYC     C4 4806   1.729   1.039   9.813
   40MYC     H4 4807   1.636   1.041   9.754
   40MYC     H5 4808   1.739   0.935   9.846
   40MYC     C2 4809   1.836   1.081   9.710
   40MYC     H2 4810   1.784   1.149   9.642
   40MYC     O3 4811   1.937   1.154   9.778
   40MYC     H3 4812   2.003   1.092   9.814
   40MYC     C1 4813   1.898   0.970   9.623
   40MYC     H1 4814   1.813   0.912   9.584
   40MYC    C81 4815   1.989   0.877   9.701
   40MYC    O82 4816   2.023   0.896   9.816
   40MYC    O83 4817   2.002   0.751   9.653
   40MYC   6H15 4818   2.086   0.727   9.694
   40MYC    C20 4819   1.971   1.017   9.496
   40MYC    H34 4820   2.046   1.088   9.534
   40MYC    H35 4821   2.031   0.931   9.464
   40MYC    C21 4822   1.883   1.072   9.383
   40MYC    H36 4823   1.803   1.000   9.362
   40MYC    H37 4824   1.835   1.161   9.424
   40MYC    C22 4825   1.970   1.102   9.259
   40MYC    H38 4826   2.051   1.173   9.284
   40MYC    H39 4827   2.012   1.003   9.237
   40MYC    C23 4828   1.893   1.147   9.134
   40MYC    H40 4829   1.831   1.060   9.111
   40MYC    H41 4830   1.829   1.228   9.171
   40MYC    C24 4831   1.970   1.186   9.006
   40MYC    H42 4832   2.023   1.280   9.024
   40MYC    H43 4833   2.052   1.113   8.996
   40MYC    C25 4834   1.880   1.190   8.882
   40MYC    H44 4835   1.830   1.093   8.869
   40MYC    H45 4836   1.798   1.264   8.879
   40MYC    C26 4837   1.962   1.222   8.756
   40MYC    H46 4838   2.003   1.324   8.756
   40MYC    H47 4839   2.053   1.162   8.766
   40MYC    C27 4840   1.890   1.186   8.625
   40MYC    H48 4841   1.844   1.087   8.631
   40MYC    H49 4842   1.819   1.268   8.604
   40MYC    C28 4843   1.993   1.169   8.513
   40MYC    H50 4844   2.071   1.246   8.513
   40MYC    H51 4845   2.049   1.079   8.540
   40MYC    C29 4846   1.912   1.152   8.383
   40MYC    H52 4847   1.889   1.045   8.375
   40MYC    H53 4848   1.819   1.210   8.385
   40MYC    C30 4849   2.000   1.182   8.261
   40MYC    H54 4850   2.036   1.285   8.258
   40MYC    H55 4851   2.087   1.115   8.260
   40MYC    C31 4852   1.924   1.163   8.129
   40MYC    H56 4853   1.882   1.062   8.126
   40MYC    H57 4854   1.826   1.211   8.135
   40MYC    C32 4855   2.000   1.202   8.001
   40MYC    H58 4856   2.017   1.310   8.013
   40MYC    H59 4857   2.086   1.134   7.994
   40MYC    C33 4858   1.914   1.170   7.877
   40MYC    H60 4859   1.899   1.061   7.871
   40MYC    H61 4860   1.817   1.218   7.893
   40MYC    C34 4861   1.979   1.223   7.748
   40MYC    H62 4862   1.999   1.331   7.749
   40MYC    H63 4863   2.075   1.171   7.745
   40MYC    C35 4864   1.898   1.200   7.620
   40MYC    H64 4865   1.882   1.093   7.603
   40MYC    H65 4866   1.805   1.258   7.622
   40MYC    C36 4867   1.977   1.258   7.501
   40MYC    H66 4868   2.002   1.364   7.515
   40MYC    H67 4869   2.072   1.203   7.488
   40MYC    C37 4870   1.888   1.242   7.378
   40MYC    H68 4871   1.863   1.136   7.363
   40MYC    H69 4872   1.789   1.284   7.402
   40MYC    C38 4873   1.946   1.296   7.246
   40MYC    H70 4874   1.940   1.405   7.249
   40MYC    H71 4875   2.054   1.275   7.250
   40MYC    C39 4876   1.880   1.234   7.121
   40MYC    H72 4877   1.887   1.124   7.122
   40MYC    H73 4878   1.773   1.260   7.121
   40MYC    C40 4879   1.927   1.283   6.983
   40MYC    H74 4880   1.915   1.390   6.966
   40MYC    H75 4881   2.035   1.265   6.978
   40MYC    C41 4882   1.866   1.204   6.866
   40MYC    H76 4883   1.896   1.099   6.864
   40MYC    H77 4884   1.756   1.205   6.874
   40MYC    C42 4885   1.905   1.260   6.728
   40MYC    H78 4886   1.894   1.369   6.732
   40MYC    H79 4887   2.011   1.249   6.702
   40MYC    C43 4888   1.818   1.207   6.613
   40MYC    H80 4889   1.738   1.280   6.590
   40MYC    H81 4890   1.765   1.116   6.642
   40MYC    H82 4891   1.880   1.192   6.524
   41MYC   5H15 4892   3.043   1.506   6.676
   41MYC    C80 4893   2.974   1.530   6.758
   41MYC   3H15 4894   2.917   1.614   6.717
   41MYC   4H15 4895   2.902   1.450   6.781
   41MYC    C79 4896   3.045   1.561   6.890
   41MYC   1H15 4897   3.111   1.649   6.882
   41MYC   2H15 4898   3.128   1.491   6.905
   41MYC    C78 4899   2.953   1.568   7.013
   41MYC   9H14 4900   2.899   1.473   7.019
   41MYC   0H15 4901   2.882   1.646   6.986
   41MYC    C77 4902   3.018   1.602   7.148
   41MYC   7H14 4903   3.046   1.708   7.154
   41MYC   8H14 4904   3.113   1.548   7.156
   41MYC    C76 4905   2.921   1.571   7.263
   41MYC   5H14 4906   2.912   1.462   7.266
   41MYC   6H14 4907   2.826   1.615   7.232
   41MYC    C75 4908   2.959   1.621   7.403
   41MYC   3H14 4909   2.967   1.730   7.392
   41MYC   4H14 4910   3.058   1.586   7.435
   41MYC    C74 4911   2.861   1.578   7.514
   41MYC   1H14 4912   2.840   1.470   7.512
   41MYC   2H14 4913   2.765   1.628   7.501
   41MYC    C73 4914   2.915   1.610   7.654
   41MYC   9H13 4915   2.953   1.713   7.658
   41MYC   0H14 4916   3.004   1.549   7.670
   41MYC    C72 4917   2.821   1.582   7.773
   41MYC   7H13 4918   2.749   1.502   7.753
   41MYC   8H13 4919   2.765   1.676   7.785
   41MYC    C71 4920   2.893   1.557   7.906
   41MYC   5H13 4921   2.931   1.654   7.940
   41MYC   6H13 4922   2.982   1.498   7.878
   41MYC    C70 4923   2.821   1.466   8.007
   41MYC   3H13 4924   2.782   1.376   7.959
   41MYC   4H13 4925   2.737   1.524   8.046
   41MYC    C69 4926   2.910   1.404   8.116
   41MYC   1H13 4927   2.958   1.484   8.175
   41MYC   2H13 4928   2.993   1.350   8.069
   41MYC    C68 4929   2.837   1.309   8.212
   41MYC   9H12 4930   2.785   1.234   8.150
   41MYC   0H13 4931   2.764   1.364   8.272
   41MYC    C67 4932   2.941   1.237   8.299
   41MYC   7H12 4933   3.039   1.286   8.311
   41MYC   8H12 4934   2.964   1.142   8.250
   41MYC    C66 4935   2.885   1.199   8.437
   41MYC   5H12 4936   2.938   1.110   8.475
   41MYC   6H12 4937   2.780   1.168   8.432
   41MYC    C65 4938   2.893   1.311   8.541
   41MYC   3H12 4939   2.825   1.397   8.528
   41MYC   4H12 4940   2.993   1.355   8.538
   41MYC    C64 4941   2.862   1.258   8.682
   41MYC   1H12 4942   2.933   1.177   8.702
   41MYC   2H12 4943   2.763   1.210   8.691
   41MYC    C63 4944   2.881   1.369   8.786
   41MYC   9H11 4945   2.809   1.448   8.763
   41MYC   0H12 4946   2.979   1.417   8.790
   41MYC    C62 4947   2.835   1.315   8.923
   41MYC   7H11 4948   2.879   1.219   8.953
   41MYC   8H11 4949   2.726   1.307   8.921
   41MYC    C61 4950   2.874   1.413   9.035
   41MYC   5H11 4951   2.828   1.511   9.018
   41MYC   6H11 4952   2.979   1.443   9.023
   41MYC    C60 4953   2.846   1.364   9.176
   41MYC   4H11 4954   2.852   1.256   9.189
   41MYC    C58 4955   2.899   1.436   9.297
   41MYC   1H11 4956   2.960   1.522   9.273
   41MYC    C59 4957   2.752   1.441   9.265
   41MYC   2H11 4958   2.686   1.368   9.310
   41MYC   3H11 4959   2.703   1.524   9.215
   41MYC    C57 4960   2.947   1.355   9.417
   41MYC   9H10 4961   3.056   1.366   9.427
   41MYC   0H11 4962   2.933   1.246   9.414
   41MYC    C56 4963   2.888   1.406   9.549
   41MYC   7H10 4964   2.783   1.376   9.559
   41MYC   8H10 4965   2.891   1.516   9.557
   41MYC    C55 4966   2.969   1.358   9.671
   41MYC   5H10 4967   3.073   1.384   9.650
   41MYC   6H10 4968   2.953   1.250   9.667
   41MYC    C54 4969   2.929   1.429   9.801
   41MYC   3H10 4970   2.834   1.386   9.834
   41MYC   4H10 4971   2.915   1.537   9.788
   41MYC    C53 4972   3.031   1.390   9.909
   41MYC   1H10 4973   3.125   1.424   9.863
   41MYC   2H10 4974   3.043   1.281   9.917
   41MYC    C52 4975   3.000   1.439  10.051
   41MYC    H99 4976   2.891   1.446  10.055
   41MYC   0H10 4977   3.040   1.540  10.062
   41MYC    C51 4978   3.058   1.356  10.167
   41MYC    H97 4979   3.167   1.366  10.159
   41MYC    H98 4980   3.040   1.250  10.144
   41MYC    C50 4981   3.002   1.404  10.302
   41MYC    H95 4982   2.898   1.436  10.292
   41MYC    H96 4983   3.065   1.489  10.331
   41MYC    C49 4984   3.015   1.299  10.414
   41MYC    H93 4985   3.120   1.270  10.427
   41MYC    H94 4986   2.966   1.204  10.389
   41MYC    C48 4987   2.965   1.358  10.547
   41MYC    H91 4988   2.857   1.380  10.539
   41MYC    H92 4989   3.010   1.454  10.576
   41MYC    C47 4990   3.002   1.267  10.665
   41MYC    H89 4991   3.106   1.284  10.693
   41MYC    H90 4992   2.986   1.164  10.631
   41MYC    C46 4993   2.911   1.276  10.788
   41MYC    H87 4994   2.827   1.209  10.765
   41MYC    H88 4995   2.872   1.378  10.801
   41MYC    C45 4996   2.977   1.236  10.921
   41MYC    H85 4997   3.028   1.327  10.957
   41MYC    H86 4998   3.045   1.154  10.895
   41MYC    C44 4999   2.887   1.176  11.030
   41MYC    H83 5000   2.956   1.138  11.107
   41MYC    H84 5001   2.827   1.095  10.986
   41MYC    C18 5002   2.789   1.274  11.093
   41MYC    H31 5003   2.837   1.364  11.132
   41MYC    C17 5004   2.654   1.291  11.030
   41MYC    H30 5005   2.612   1.219  10.960
   41MYC    C19 5006   2.665   1.232  11.168
   41MYC    H32 5007   2.647   1.125  11.171
   41MYC    H33 5008   2.637   1.298  11.250
   41MYC    C16 5009   2.601   1.434  11.020
   41MYC    H28 5010   2.676   1.494  10.968
   41MYC    H29 5011   2.605   1.475  11.122
   41MYC    C15 5012   2.463   1.459  10.957
   41MYC    H26 5013   2.433   1.557  10.996
   41MYC    H27 5014   2.384   1.396  10.998
   41MYC    C14 5015   2.451   1.461  10.803
   41MYC    H24 5016   2.497   1.372  10.757
   41MYC    H25 5017   2.511   1.540  10.757
   41MYC    C13 5018   2.305   1.467  10.755
   41MYC    H22 5019   2.266   1.556  10.805
   41MYC    H23 5020   2.246   1.378  10.780
   41MYC    C12 5021   2.300   1.473  10.602
   41MYC    H20 5022   2.201   1.447  10.563
   41MYC    H21 5023   2.361   1.394  10.556
   41MYC    C11 5024   2.343   1.609  10.543
   41MYC    H18 5025   2.449   1.624  10.566
   41MYC    H19 5026   2.285   1.694  10.580
   41MYC    C10 5027   2.331   1.615  10.389
   41MYC    H16 5028   2.340   1.721  10.361
   41MYC    H17 5029   2.231   1.583  10.359
   41MYC     C9 5030   2.447   1.536  10.326
   41MYC    H14 5031   2.436   1.428  10.342
   41MYC    H15 5032   2.545   1.565  10.367
   41MYC     C8 5033   2.457   1.564  10.176
   41MYC    H12 5034   2.446   1.672  10.160
   41MYC    H13 5035   2.362   1.525  10.135
   41MYC     C7 5036   2.579   1.508  10.101
   41MYC    H10 5037   2.591   1.399  10.101
   41MYC    H11 5038   2.656   1.558  10.162
   41MYC     C6 5039   2.589   1.549   9.953
   41MYC     H8 5040   2.690   1.517   9.926
   41MYC     H9 5041   2.599   1.658   9.945
   41MYC     C5 5042   2.486   1.487   9.858
   41MYC     H6 5043   2.384   1.502   9.895
   41MYC     H7 5044   2.491   1.380   9.882
   41MYC     C4 5045   2.503   1.522   9.709
   41MYC     H4 5046   2.607   1.514   9.675
   41MYC     H5 5047   2.489   1.631   9.707
   41MYC     C2 5048   2.410   1.437   9.620
   41MYC     H2 5049   2.451   1.455   9.520
   41MYC     O3 5050   2.427   1.299   9.649
   41MYC     H3 5051   2.439   1.299   9.746
   41MYC     C1 5052   2.262   1.481   9.617
   41MYC     H1 5053   2.258   1.589   9.631
   41MYC    C81 5054   2.178   1.416   9.726
   41MYC    O82 5055   2.210   1.330   9.805
   41MYC    O83 5056   2.056   1.472   9.742
   41MYC   6H15 5057   2.016   1.422   9.815
   41MYC    C20 5058   2.198   1.447   9.481
   41MYC    H34 5059   2.194   1.338   9.471
   41MYC    H35 5060   2.092   1.476   9.480
   41MYC    C21 5061   2.264   1.488   9.349
   41MYC    H36 5062   2.292   1.593   9.368
   41MYC    H37 5063   2.358   1.433   9.338
   41MYC    C22 5064   2.185   1.481   9.217
   41MYC    H38 5065   2.130   1.387   9.215
   41MYC    H39 5066   2.124   1.572   9.204
   41MYC    C23 5067   2.276   1.485   9.092
   41MYC    H40 5068   2.361   1.549   9.116
   41MYC    H41 5069   2.322   1.386   9.084
   41MYC    C24 5070   2.203   1.522   8.962
   41MYC    H42 5071   2.121   1.450   8.952
   41MYC    H43 5072   2.150   1.615   8.987
   41MYC    C25 5073   2.289   1.521   8.835
   41MYC    H44 5074   2.385   1.574   8.843
   41MYC    H45 5075   2.319   1.417   8.815
   41MYC    C26 5076   2.219   1.588   8.716
   41MYC    H46 5077   2.131   1.529   8.689
   41MYC    H47 5078   2.188   1.684   8.760
   41MYC    C27 5079   2.305   1.599   8.589
   41MYC    H48 5080   2.384   1.670   8.612
   41MYC    H49 5081   2.360   1.508   8.562
   41MYC    C28 5082   2.235   1.658   8.465
   41MYC    H50 5083   2.146   1.596   8.449
   41MYC    H51 5084   2.200   1.762   8.475
   41MYC    C29 5085   2.330   1.654   8.344
   41MYC    H52 5086   2.400   1.738   8.344
   41MYC    H53 5087   2.373   1.553   8.349
   41MYC    C30 5088   2.251   1.681   8.214
   41MYC    H54 5089   2.186   1.596   8.191
   41MYC    H55 5090   2.197   1.776   8.213
   41MYC    C31 5091   2.354   1.705   8.103
   41MYC    H56 5092   2.416   1.795   8.119
   41MYC    H57 5093   2.420   1.619   8.115
   41MYC    C32 5094   2.284   1.716   7.966
   41MYC    H58 5095   2.198   1.647   7.966
   41MYC    H59 5096   2.251   1.820   7.954
   41MYC    C33 5097   2.384   1.685   7.853
   41MYC    H60 5098   2.473   1.747   7.860
   41MYC    H61 5099   2.429   1.588   7.877
   41MYC    C34 5100   2.322   1.682   7.712
   41MYC    H62 5101   2.258   1.594   7.702
   41MYC    H63 5102   2.264   1.773   7.693
   41MYC    C35 5103   2.427   1.665   7.601
   41MYC    H64 5104   2.486   1.757   7.610
   41MYC    H65 5105   2.488   1.574   7.614
   41MYC    C36 5106   2.359   1.646   7.464
   41MYC    H66 5107   2.295   1.558   7.477
   41MYC    H67 5108   2.290   1.730   7.457
   41MYC    C37 5109   2.465   1.629   7.354
   41MYC    H68 5110   2.539   1.710   7.355
   41MYC    H69 5111   2.522   1.538   7.378
   41MYC    C38 5112   2.409   1.628   7.211
   41MYC    H70 5113   2.340   1.543   7.201
   41MYC    H71 5114   2.343   1.712   7.184
   41MYC    C39 5115   2.518   1.595   7.108
   41MYC    H72 5116   2.593   1.674   7.110
   41MYC    H73 5117   2.570   1.502   7.134
   41MYC    C40 5118   2.449   1.566   6.974
   41MYC    H74 5119   2.364   1.497   6.987
   41MYC    H75 5120   2.418   1.657   6.922
   41MYC    C41 5121   2.554   1.497   6.886
   41MYC    H76 5122   2.641   1.563   6.877
   41MYC    H77 5123   2.607   1.413   6.934
   41MYC    C42 5124   2.494   1.468   6.748
   41MYC    H78 5125   2.431   1.380   6.764
   41MYC    H79 5126   2.433   1.555   6.719
   41MYC    C43 5127   2.603   1.447   6.641
   41MYC    H80 5128   2.564   1.466   6.540
   41MYC    H81 5129   2.648   1.349   6.655
   41MYC    H82 5130   2.684   1.521   6.648
   42MYC   5H15 5131   3.455   1.549   6.504
   42MYC    C80 5132   3.499   1.505   6.594
   42MYC   3H15 5133   3.453   1.407   6.610
   42MYC   4H15 5134   3.608   1.494   6.588
   42MYC    C79 5135   3.456   1.581   6.721
   42MYC   1H15 5136   3.346   1.582   6.726
   42MYC   2H15 5137   3.488   1.685   6.705
   42MYC    C78 5138   3.526   1.547   6.853
   42MYC   9H14 5139   3.630   1.580   6.841
   42MYC   0H15 5140   3.533   1.439   6.875
   42MYC    C77 5141   3.449   1.611   6.970
   42MYC   7H14 5142   3.362   1.547   6.994
   42MYC   8H14 5143   3.417   1.714   6.954
   42MYC    C76 5144   3.537   1.620   7.095
   42MYC   5H14 5145   3.632   1.674   7.085
   42MYC   6H14 5146   3.580   1.522   7.119
   42MYC    C75 5147   3.471   1.680   7.220
   42MYC   3H14 5148   3.375   1.631   7.237
   42MYC   4H14 5149   3.447   1.785   7.196
   42MYC    C74 5150   3.546   1.674   7.354
   42MYC   1H14 5151   3.640   1.729   7.341
   42MYC   2H14 5152   3.568   1.568   7.375
   42MYC    C73 5153   3.463   1.738   7.466
   42MYC   9H13 5154   3.366   1.687   7.457
   42MYC   0H14 5155   3.439   1.845   7.465
   42MYC    C72 5156   3.523   1.708   7.604
   42MYC   7H13 5157   3.618   1.763   7.613
   42MYC   8H13 5158   3.541   1.600   7.604
   42MYC    C71 5159   3.421   1.754   7.710
   42MYC   5H13 5160   3.320   1.721   7.683
   42MYC   6H13 5161   3.412   1.864   7.710
   42MYC    C70 5162   3.456   1.694   7.847
   42MYC   3H13 5163   3.558   1.716   7.880
   42MYC   4H13 5164   3.468   1.585   7.841
   42MYC    C69 5165   3.360   1.737   7.959
   42MYC   1H13 5166   3.263   1.696   7.926
   42MYC   2H13 5167   3.361   1.846   7.970
   42MYC    C68 5168   3.396   1.668   8.091
   42MYC   9H12 5169   3.500   1.688   8.119
   42MYC   0H13 5170   3.405   1.561   8.070
   42MYC    C67 5171   3.288   1.692   8.198
   42MYC   7H12 5172   3.192   1.652   8.161
   42MYC   8H12 5173   3.279   1.801   8.208
   42MYC    C66 5174   3.315   1.617   8.329
   42MYC   5H12 5175   3.423   1.600   8.331
   42MYC   6H12 5176   3.267   1.518   8.320
   42MYC    C65 5177   3.276   1.699   8.453
   42MYC   3H12 5178   3.166   1.704   8.460
   42MYC   4H12 5179   3.318   1.800   8.441
   42MYC    C64 5180   3.321   1.631   8.583
   42MYC   1H12 5181   3.422   1.596   8.561
   42MYC   2H12 5182   3.273   1.533   8.598
   42MYC    C63 5183   3.320   1.725   8.705
   42MYC   9H11 5184   3.213   1.737   8.725
   42MYC   0H12 5185   3.346   1.827   8.675
   42MYC    C62 5186   3.397   1.678   8.830
   42MYC   7H11 5187   3.504   1.694   8.816
   42MYC   8H11 5188   3.383   1.569   8.832
   42MYC    C61 5189   3.359   1.741   8.965
   42MYC   5H11 5190   3.259   1.704   8.992
   42MYC   6H11 5191   3.352   1.850   8.955
   42MYC    C60 5192   3.463   1.699   9.067
   42MYC   4H11 5193   3.566   1.727   9.045
   42MYC    C58 5194   3.421   1.687   9.211
   42MYC   1H11 5195   3.316   1.710   9.230
   42MYC    C59 5196   3.455   1.563   9.132
   42MYC   2H11 5197   3.549   1.511   9.146
   42MYC   3H11 5198   3.370   1.495   9.134
   42MYC    C57 5199   3.507   1.734   9.328
   42MYC   9H10 5200   3.462   1.828   9.361
   42MYC   0H11 5201   3.611   1.751   9.299
   42MYC    C56 5202   3.518   1.627   9.438
   42MYC   7H10 5203   3.579   1.541   9.408
   42MYC   8H10 5204   3.418   1.589   9.462
   42MYC    C55 5205   3.573   1.690   9.567
   42MYC   5H10 5206   3.519   1.780   9.596
   42MYC   6H10 5207   3.673   1.726   9.540
   42MYC    C54 5208   3.568   1.592   9.686
   42MYC   3H10 5209   3.619   1.501   9.651
   42MYC   4H10 5210   3.466   1.558   9.706
   42MYC    C53 5211   3.625   1.645   9.818
   42MYC   1H10 5212   3.593   1.749   9.824
   42MYC   2H10 5213   3.734   1.660   9.819
   42MYC    C52 5214   3.602   1.565   9.947
   42MYC    H99 5215   3.694   1.509   9.971
   42MYC   0H10 5216   3.519   1.494   9.935
   42MYC    C51 5217   3.570   1.648  10.073
   42MYC    H97 5218   3.473   1.698  10.061
   42MYC    H98 5219   3.645   1.724  10.096
   42MYC    C50 5220   3.560   1.562  10.200
   42MYC    H95 5221   3.662   1.541  10.235
   42MYC    H96 5222   3.514   1.465  10.174
   42MYC    C49 5223   3.476   1.631  10.309
   42MYC    H93 5224   3.372   1.645  10.275
   42MYC    H94 5225   3.514   1.732  10.328
   42MYC    C48 5226   3.473   1.545  10.436
   42MYC    H91 5227   3.570   1.555  10.487
   42MYC    H92 5228   3.434   1.444  10.424
   42MYC    C47 5229   3.368   1.613  10.525
   42MYC    H89 5230   3.267   1.594  10.486
   42MYC    H90 5231   3.378   1.722  10.527
   42MYC    C46 5232   3.373   1.556  10.668
   42MYC    H87 5233   3.462   1.596  10.719
   42MYC    H88 5234   3.386   1.447  10.663
   42MYC    C45 5235   3.248   1.586  10.752
   42MYC    H85 5236   3.167   1.521  10.718
   42MYC    H86 5237   3.226   1.691  10.731
   42MYC    C44 5238   3.274   1.554  10.900
   42MYC    H83 5239   3.177   1.560  10.953
   42MYC    H84 5240   3.331   1.641  10.935
   42MYC    C18 5241   3.352   1.426  10.926
   42MYC    H31 5242   3.305   1.342  10.875
   42MYC    C17 5243   3.500   1.430  10.951
   42MYC    H30 5244   3.552   1.525  10.943
   42MYC    C19 5245   3.405   1.407  11.066
   42MYC    H32 5246   3.403   1.484  11.142
   42MYC    H33 5247   3.394   1.306  11.104
   42MYC    C16 5248   3.583   1.312  10.901
   42MYC    H28 5249   3.544   1.259  10.813
   42MYC    H29 5250   3.590   1.235  10.979
   42MYC    C15 5251   3.725   1.359  10.866
   42MYC    H26 5252   3.792   1.278  10.896
   42MYC    H27 5253   3.746   1.449  10.927
   42MYC    C14 5254   3.753   1.383  10.717
   42MYC    H24 5255   3.689   1.468  10.690
   42MYC    H25 5256   3.724   1.297  10.655
   42MYC    C13 5257   3.900   1.414  10.687
   42MYC    H22 5258   3.944   1.316  10.662
   42MYC    H23 5259   3.951   1.450  10.777
   42MYC    C12 5260   3.939   1.516  10.579
   42MYC    H20 5261   3.940   1.619  10.618
   42MYC    H21 5262   3.858   1.509  10.506
   42MYC    C11 5263   4.076   1.472  10.524
   42MYC    H18 5264   4.057   1.379  10.468
   42MYC    H19 5265   4.143   1.452  10.608
   42MYC    C10 5266   4.131   1.574  10.422
   42MYC    H16 5267   4.234   1.538  10.416
   42MYC    H17 5268   4.122   1.670  10.473
   42MYC     C9 5269   4.057   1.586  10.288
   42MYC    H14 5270   4.086   1.685  10.252
   42MYC    H15 5271   3.948   1.589  10.301
   42MYC     C8 5272   4.099   1.485  10.179
   42MYC    H12 5273   4.094   1.383  10.220
   42MYC    H13 5274   4.203   1.505  10.152
   42MYC     C7 5275   4.015   1.493  10.050
   42MYC    H10 5276   4.019   1.595  10.011
   42MYC    H11 5277   3.910   1.482  10.078
   42MYC     C6 5278   4.054   1.391   9.942
   42MYC     H8 5279   4.036   1.288   9.978
   42MYC     H9 5280   4.162   1.391   9.924
   42MYC     C5 5281   3.988   1.428   9.809
   42MYC     H6 5282   4.053   1.499   9.757
   42MYC     H7 5283   3.896   1.485   9.826
   42MYC     C4 5284   3.947   1.313   9.716
   42MYC     H4 5285   3.863   1.352   9.657
   42MYC     H5 5286   3.911   1.233   9.782
   42MYC     C2 5287   4.059   1.271   9.620
   42MYC     H2 5288   4.075   1.355   9.550
   42MYC     O3 5289   4.184   1.254   9.687
   42MYC     H3 5290   4.195   1.160   9.711
   42MYC     C1 5291   4.024   1.150   9.533
   42MYC     H1 5292   3.919   1.165   9.505
   42MYC    C81 5293   4.030   1.017   9.608
   42MYC    O82 5294   4.108   0.991   9.698
   42MYC    O83 5295   3.928   0.932   9.586
   42MYC   6H15 5296   3.946   0.862   9.651
   42MYC    C20 5297   4.098   1.139   9.398
   42MYC    H34 5298   4.188   1.201   9.406
   42MYC    H35 5299   4.131   1.037   9.379
   42MYC    C21 5300   4.015   1.181   9.275
   42MYC    H36 5301   3.932   1.109   9.274
   42MYC    H37 5302   3.984   1.286   9.283
   42MYC    C22 5303   4.090   1.157   9.143
   42MYC    H38 5304   4.180   1.220   9.139
   42MYC    H39 5305   4.121   1.052   9.145
   42MYC    C23 5306   4.000   1.190   9.023
   42MYC    H40 5307   3.914   1.124   9.004
   42MYC    H41 5308   3.955   1.289   9.027
   42MYC    C24 5309   4.071   1.163   8.889
   42MYC    H42 5310   4.173   1.203   8.881
   42MYC    H43 5311   4.077   1.054   8.879
   42MYC    C25 5312   3.991   1.206   8.765
   42MYC    H44 5313   3.900   1.145   8.754
   42MYC    H45 5314   3.978   1.314   8.780
   42MYC    C26 5315   4.082   1.199   8.641
   42MYC    H46 5316   4.149   1.286   8.640
   42MYC    H47 5317   4.147   1.112   8.647
   42MYC    C27 5318   4.000   1.200   8.511
   42MYC    H48 5319   3.958   1.100   8.502
   42MYC    H49 5320   3.919   1.272   8.524
   42MYC    C28 5321   4.070   1.246   8.381
   42MYC    H50 5322   4.105   1.350   8.387
   42MYC    H51 5323   4.161   1.186   8.373
   42MYC    C29 5324   3.994   1.212   8.252
   42MYC    H52 5325   4.002   1.108   8.220
   42MYC    H53 5326   3.887   1.230   8.265
   42MYC    C30 5327   4.042   1.312   8.144
   42MYC    H54 5328   4.056   1.413   8.184
   42MYC    H55 5329   4.140   1.275   8.111
   42MYC    C31 5330   3.938   1.320   8.031
   42MYC    H56 5331   3.896   1.220   8.016
   42MYC    H57 5332   3.854   1.382   8.065
   42MYC    C32 5333   3.995   1.359   7.894
   42MYC    H58 5334   4.056   1.449   7.906
   42MYC    H59 5335   4.070   1.280   7.876
   42MYC    C33 5336   3.894   1.361   7.778
   42MYC    H60 5337   3.826   1.275   7.771
   42MYC    H61 5338   3.839   1.455   7.790
   42MYC    C34 5339   3.972   1.369   7.646
   42MYC    H62 5340   4.043   1.452   7.650
   42MYC    H63 5341   4.035   1.280   7.634
   42MYC    C35 5342   3.887   1.398   7.520
   42MYC    H64 5343   3.789   1.350   7.533
   42MYC    H65 5344   3.864   1.505   7.522
   42MYC    C36 5345   3.954   1.352   7.390
   42MYC    H66 5346   4.062   1.369   7.387
   42MYC    H67 5347   3.935   1.244   7.380
   42MYC    C37 5348   3.882   1.422   7.274
   42MYC    H68 5349   3.774   1.404   7.271
   42MYC    H69 5350   3.891   1.530   7.288
   42MYC    C38 5351   3.955   1.398   7.141
   42MYC    H70 5352   4.060   1.429   7.141
   42MYC    H71 5353   3.952   1.289   7.130
   42MYC    C39 5354   3.895   1.476   7.022
   42MYC    H72 5355   3.792   1.443   7.009
   42MYC    H73 5356   3.885   1.583   7.044
   42MYC    C40 5357   3.977   1.446   6.895
   42MYC    H74 5358   4.080   1.481   6.912
   42MYC    H75 5359   3.990   1.337   6.890
   42MYC    C41 5360   3.923   1.500   6.762
   42MYC    H76 5361   3.822   1.461   6.748
   42MYC    H77 5362   3.911   1.609   6.762
   42MYC    C42 5363   4.011   1.451   6.645
   42MYC    H78 5364   4.118   1.466   6.661
   42MYC    H79 5365   3.996   1.344   6.622
   42MYC    C43 5366   3.967   1.531   6.522
   42MYC    H80 5367   4.038   1.511   6.441
   42MYC    H81 5368   3.958   1.641   6.527
   42MYC    H82 5369   3.871   1.496   6.482
   43MYC   5H15 5370   4.398   1.185   6.647
   43MYC    C80 5371   4.326   1.220   6.722
   43MYC   3H15 5372   4.319   1.329   6.711
   43MYC   4H15 5373   4.234   1.164   6.699
   43MYC    C79 5374   4.382   1.171   6.857
   43MYC   1H15 5375   4.481   1.209   6.884
   43MYC   2H15 5376   4.400   1.064   6.844
   43MYC    C78 5377   4.282   1.191   6.972
   43MYC   9H14 5378   4.200   1.121   6.952
   43MYC   0H15 5379   4.234   1.290   6.964
   43MYC    C77 5380   4.364   1.157   7.098
   43MYC   7H14 5381   4.446   1.230   7.106
   43MYC   8H14 5382   4.414   1.063   7.073
   43MYC    C76 5383   4.287   1.153   7.230
   43MYC   5H14 5384   4.254   1.051   7.255
   43MYC   6H14 5385   4.194   1.211   7.228
   43MYC    C75 5386   4.380   1.191   7.346
   43MYC   3H14 5387   4.422   1.290   7.323
   43MYC   4H14 5388   4.473   1.133   7.344
   43MYC    C74 5389   4.312   1.186   7.484
   43MYC   1H14 5390   4.252   1.094   7.492
   43MYC   2H14 5391   4.247   1.274   7.494
   43MYC    C73 5392   4.410   1.180   7.602
   43MYC   9H13 5393   4.484   1.260   7.588
   43MYC   0H14 5394   4.471   1.088   7.608
   43MYC    C72 5395   4.343   1.203   7.739
   43MYC   7H13 5396   4.262   1.129   7.748
   43MYC   8H13 5397   4.296   1.302   7.738
   43MYC    C71 5398   4.444   1.184   7.853
   43MYC   5H13 5399   4.517   1.266   7.849
   43MYC   6H13 5400   4.485   1.082   7.842
   43MYC    C70 5401   4.375   1.194   7.990
   43MYC   3H13 5402   4.290   1.124   7.987
   43MYC   4H13 5403   4.332   1.295   8.001
   43MYC    C69 5404   4.465   1.149   8.106
   43MYC   1H13 5405   4.551   1.216   8.117
   43MYC   2H13 5406   4.516   1.058   8.072
   43MYC    C68 5407   4.389   1.135   8.239
   43MYC   9H12 5408   4.312   1.057   8.243
   43MYC   0H13 5409   4.337   1.231   8.250
   43MYC    C67 5410   4.483   1.116   8.359
   43MYC   7H12 5411   4.579   1.167   8.346
   43MYC   8H12 5412   4.511   1.010   8.349
   43MYC    C66 5413   4.421   1.146   8.497
   43MYC   5H12 5414   4.328   1.088   8.506
   43MYC   6H12 5415   4.387   1.249   8.507
   43MYC    C65 5416   4.512   1.093   8.609
   43MYC   3H12 5417   4.612   1.127   8.579
   43MYC   4H12 5418   4.517   0.984   8.612
   43MYC    C64 5419   4.467   1.155   8.743
   43MYC   1H12 5420   4.361   1.133   8.760
   43MYC   2H12 5421   4.469   1.264   8.726
   43MYC    C63 5422   4.545   1.115   8.869
   43MYC   9H11 5423   4.649   1.148   8.868
   43MYC   0H12 5424   4.535   1.006   8.866
   43MYC    C62 5425   4.465   1.153   8.995
   43MYC   7H11 5426   4.365   1.111   8.976
   43MYC   8H11 5427   4.458   1.262   9.005
   43MYC    C61 5428   4.534   1.090   9.117
   43MYC   5H11 5429   4.644   1.096   9.107
   43MYC   6H11 5430   4.514   0.983   9.103
   43MYC    C60 5431   4.494   1.122   9.260
   43MYC   4H11 5432   4.386   1.122   9.275
   43MYC    C58 5433   4.577   1.071   9.374
   43MYC   1H11 5434   4.668   1.015   9.355
   43MYC    C59 5435   4.572   1.219   9.345
   43MYC   2H11 5436   4.523   1.279   9.422
   43MYC   3H11 5437   4.651   1.278   9.301
   43MYC    C57 5438   4.506   1.015   9.497
   43MYC   9H10 5439   4.492   0.907   9.487
   43MYC   0H11 5440   4.406   1.059   9.505
   43MYC    C56 5441   4.570   1.041   9.635
   43MYC   7H10 5442   4.580   1.150   9.647
   43MYC   8H10 5443   4.668   0.992   9.642
   43MYC    C55 5444   4.482   0.992   9.751
   43MYC   5H10 5445   4.466   0.884   9.751
   43MYC   6H10 5446   4.384   1.040   9.741
   43MYC    C54 5447   4.542   1.026   9.888
   43MYC   3H10 5448   4.581   1.128   9.872
   43MYC   4H10 5449   4.637   0.973   9.903
   43MYC    C53 5450   4.453   1.034  10.013
   43MYC   1H10 5451   4.429   0.932  10.048
   43MYC   2H10 5452   4.357   1.079   9.985
   43MYC    C52 5453   4.509   1.118  10.128
   43MYC    H99 5454   4.493   1.222  10.097
   43MYC   0H10 5455   4.616   1.104  10.147
   43MYC    C51 5456   4.440   1.084  10.262
   43MYC    H97 5457   4.475   0.985  10.295
   43MYC    H98 5458   4.332   1.071  10.245
   43MYC    C50 5459   4.466   1.202  10.356
   43MYC    H95 5460   4.405   1.290  10.334
   43MYC    H96 5461   4.569   1.229  10.330
   43MYC    C49 5462   4.451   1.157  10.502
   43MYC    H93 5463   4.527   1.082  10.526
   43MYC    H94 5464   4.351   1.110  10.510
   43MYC    C48 5465   4.468   1.266  10.609
   43MYC    H91 5466   4.388   1.340  10.598
   43MYC    H92 5467   4.555   1.327  10.579
   43MYC    C47 5468   4.480   1.206  10.750
   43MYC    H89 5469   4.567   1.139  10.747
   43MYC    H90 5470   4.395   1.138  10.762
   43MYC    C46 5471   4.477   1.308  10.864
   43MYC    H87 5472   4.389   1.373  10.873
   43MYC    H88 5473   4.561   1.378  10.854
   43MYC    C45 5474   4.493   1.243  11.003
   43MYC    H85 5475   4.587   1.186  10.998
   43MYC    H86 5476   4.405   1.181  11.019
   43MYC    C44 5477   4.503   1.344  11.119
   43MYC    H83 5478   4.472   1.287  11.207
   43MYC    H84 5479   4.421   1.414  11.105
   43MYC    C18 5480   4.639   1.407  11.143
   43MYC    H31 5481   4.703   1.396  11.055
   43MYC    C17 5482   4.641   1.550  11.191
   43MYC    H30 5483   4.541   1.592  11.202
   43MYC    C19 5484   4.686   1.440  11.283
   43MYC    H32 5485   4.615   1.410  11.360
   43MYC    H33 5486   4.791   1.424  11.305
   43MYC    C16 5487   4.742   1.655  11.145
   43MYC    H28 5488   4.806   1.603  11.074
   43MYC    H29 5489   4.800   1.697  11.228
   43MYC    C15 5490   4.664   1.767  11.075
   43MYC    H26 5491   4.711   1.862  11.103
   43MYC    H27 5492   4.556   1.772  11.096
   43MYC    C14 5493   4.685   1.757  10.923
   43MYC    H24 5494   4.648   1.658  10.894
   43MYC    H25 5495   4.792   1.760  10.901
   43MYC    C13 5496   4.616   1.864  10.836
   43MYC    H22 5497   4.605   1.958  10.891
   43MYC    H23 5498   4.518   1.826  10.806
   43MYC    C12 5499   4.687   1.888  10.701
   43MYC    H20 5500   4.693   1.785  10.662
   43MYC    H21 5501   4.787   1.930  10.714
   43MYC    C11 5502   4.610   1.985  10.610
   43MYC    H18 5503   4.670   2.003  10.521
   43MYC    H19 5504   4.614   2.084  10.658
   43MYC    C10 5505   4.467   1.950  10.566
   43MYC    H16 5506   4.427   2.032  10.506
   43MYC    H17 5507   4.402   1.940  10.654
   43MYC     C9 5508   4.448   1.813  10.498
   43MYC    H14 5509   4.340   1.811  10.478
   43MYC    H15 5510   4.464   1.727  10.565
   43MYC     C8 5511   4.535   1.799  10.373
   43MYC    H12 5512   4.636   1.781  10.412
   43MYC    H13 5513   4.520   1.889  10.312
   43MYC     C7 5514   4.498   1.678  10.285
   43MYC    H10 5515   4.389   1.670  10.279
   43MYC    H11 5516   4.547   1.591  10.330
   43MYC     C6 5517   4.543   1.703  10.140
   43MYC     H8 5518   4.646   1.740  10.147
   43MYC     H9 5519   4.473   1.780  10.104
   43MYC     C5 5520   4.527   1.576  10.054
   43MYC     H6 5521   4.429   1.528  10.068
   43MYC     H7 5522   4.596   1.496  10.081
   43MYC     C4 5523   4.551   1.612   9.906
   43MYC     H4 5524   4.621   1.538   9.865
   43MYC     H5 5525   4.612   1.703   9.909
   43MYC     C2 5526   4.426   1.644   9.822
   43MYC     H2 5527   4.410   1.546   9.776
   43MYC     O3 5528   4.316   1.688   9.901
   43MYC     H3 5529   4.253   1.735   9.844
   43MYC     C1 5530   4.452   1.748   9.712
   43MYC     H1 5531   4.547   1.726   9.662
   43MYC    C81 5532   4.465   1.886   9.775
   43MYC    O82 5533   4.374   1.966   9.760
   43MYC    O83 5534   4.592   1.930   9.786
   43MYC   6H15 5535   4.583   2.026   9.798
   43MYC    C20 5536   4.352   1.742   9.596
   43MYC    H34 5537   4.249   1.728   9.631
   43MYC    H35 5538   4.348   1.840   9.547
   43MYC    C21 5539   4.380   1.639   9.485
   43MYC    H36 5540   4.489   1.636   9.473
   43MYC    H37 5541   4.347   1.537   9.508
   43MYC    C22 5542   4.317   1.679   9.350
   43MYC    H38 5543   4.209   1.671   9.366
   43MYC    H39 5544   4.324   1.787   9.330
   43MYC    C23 5545   4.371   1.586   9.240
   43MYC    H40 5546   4.479   1.606   9.236
   43MYC    H41 5547   4.361   1.480   9.268
   43MYC    C24 5548   4.304   1.608   9.103
   43MYC    H42 5549   4.196   1.612   9.118
   43MYC    H43 5550   4.339   1.707   9.070
   43MYC    C25 5551   4.348   1.523   8.983
   43MYC    H44 5552   4.452   1.496   9.005
   43MYC    H45 5553   4.287   1.431   8.988
   43MYC    C26 5554   4.328   1.593   8.847
   43MYC    H46 5555   4.225   1.579   8.812
   43MYC    H47 5556   4.355   1.700   8.849
   43MYC    C27 5557   4.403   1.531   8.728
   43MYC    H48 5558   4.509   1.512   8.748
   43MYC    H49 5559   4.351   1.437   8.708
   43MYC    C28 5560   4.392   1.620   8.603
   43MYC    H50 5561   4.296   1.674   8.605
   43MYC    H51 5562   4.460   1.705   8.612
   43MYC    C29 5563   4.405   1.543   8.471
   43MYC    H52 5564   4.497   1.483   8.473
   43MYC    H53 5565   4.321   1.477   8.446
   43MYC    C30 5566   4.403   1.641   8.352
   43MYC    H54 5567   4.331   1.722   8.369
   43MYC    H55 5568   4.506   1.678   8.348
   43MYC    C31 5569   4.376   1.582   8.212
   43MYC    H56 5570   4.469   1.529   8.187
   43MYC    H57 5571   4.290   1.514   8.218
   43MYC    C32 5572   4.358   1.687   8.102
   43MYC    H58 5573   4.261   1.737   8.115
   43MYC    H59 5574   4.430   1.770   8.107
   43MYC    C33 5575   4.342   1.629   7.960
   43MYC    H60 5576   4.430   1.568   7.937
   43MYC    H61 5577   4.254   1.565   7.963
   43MYC    C34 5578   4.347   1.740   7.853
   43MYC    H62 5579   4.298   1.832   7.886
   43MYC    H63 5580   4.452   1.768   7.835
   43MYC    C35 5581   4.278   1.688   7.726
   43MYC    H64 5582   4.323   1.591   7.701
   43MYC    H65 5583   4.171   1.675   7.746
   43MYC    C36 5584   4.309   1.780   7.607
   43MYC    H66 5585   4.255   1.874   7.624
   43MYC    H67 5586   4.417   1.795   7.591
   43MYC    C37 5587   4.238   1.722   7.484
   43MYC    H68 5588   4.261   1.615   7.471
   43MYC    H69 5589   4.129   1.730   7.489
   43MYC    C38 5590   4.277   1.795   7.354
   43MYC    H70 5591   4.246   1.900   7.359
   43MYC    H71 5592   4.386   1.798   7.342
   43MYC    C39 5593   4.227   1.719   7.230
   43MYC    H72 5594   4.285   1.628   7.213
   43MYC    H73 5595   4.123   1.687   7.244
   43MYC    C40 5596   4.256   1.797   7.101
   43MYC    H74 5597   4.229   1.902   7.120
   43MYC    H75 5598   4.365   1.800   7.084
   43MYC    C41 5599   4.212   1.748   6.962
   43MYC    H76 5600   4.258   1.650   6.945
   43MYC    H77 5601   4.104   1.728   6.958
   43MYC    C42 5602   4.254   1.854   6.859
   43MYC    H78 5603   4.185   1.939   6.871
   43MYC    H79 5604   4.356   1.889   6.877
   43MYC    C43 5605   4.250   1.798   6.716
   43MYC    H80 5606   4.275   1.881   6.649
   43MYC    H81 5607   4.149   1.764   6.689
   43MYC    H82 5608   4.324   1.718   6.706
   44MYC   5H15 5609   5.589   1.393   6.726
   44MYC    C80 5610   5.631   1.299   6.688
   44MYC   3H15 5611   5.565   1.260   6.610
   44MYC   4H15 5612   5.723   1.337   6.644
   44MYC    C79 5613   5.646   1.198   6.804
   44MYC   1H15 5614   5.753   1.191   6.827
   44MYC   2H15 5615   5.618   1.098   6.769
   44MYC    C78 5616   5.557   1.233   6.925
   44MYC   9H14 5617   5.455   1.205   6.897
   44MYC   0H15 5618   5.563   1.340   6.947
   44MYC    C77 5619   5.598   1.156   7.052
   44MYC   7H14 5620   5.706   1.170   7.063
   44MYC   8H14 5621   5.579   1.048   7.048
   44MYC    C76 5622   5.549   1.214   7.185
   44MYC   5H14 5623   5.441   1.194   7.191
   44MYC   6H14 5624   5.546   1.323   7.189
   44MYC    C75 5625   5.629   1.167   7.308
   44MYC   3H14 5626   5.731   1.207   7.304
   44MYC   4H14 5627   5.642   1.058   7.300
   44MYC    C74 5628   5.539   1.198   7.429
   44MYC   1H14 5629   5.447   1.139   7.418
   44MYC   2H14 5630   5.499   1.300   7.426
   44MYC    C73 5631   5.605   1.162   7.563
   44MYC   9H13 5632   5.694   1.223   7.584
   44MYC   0H14 5633   5.628   1.054   7.568
   44MYC    C72 5634   5.508   1.194   7.677
   44MYC   7H13 5635   5.428   1.120   7.662
   44MYC   8H13 5636   5.472   1.296   7.658
   44MYC    C71 5637   5.558   1.179   7.822
   44MYC   5H13 5638   5.647   1.243   7.825
   44MYC   6H13 5639   5.580   1.075   7.847
   44MYC    C70 5640   5.447   1.226   7.918
   44MYC   3H13 5641   5.359   1.161   7.910
   44MYC   4H13 5642   5.400   1.320   7.886
   44MYC    C69 5643   5.487   1.240   8.066
   44MYC   1H13 5644   5.540   1.334   8.086
   44MYC   2H13 5645   5.553   1.156   8.090
   44MYC    C68 5646   5.368   1.218   8.161
   44MYC   9H12 5647   5.322   1.120   8.146
   44MYC   0H13 5648   5.291   1.296   8.155
   44MYC    C67 5649   5.416   1.230   8.306
   44MYC   7H12 5650   5.472   1.323   8.323
   44MYC   8H12 5651   5.495   1.155   8.322
   44MYC    C66 5652   5.305   1.210   8.411
   44MYC   5H12 5653   5.254   1.114   8.394
   44MYC   6H12 5654   5.228   1.285   8.389
   44MYC    C65 5655   5.346   1.225   8.558
   44MYC   3H12 5656   5.384   1.327   8.569
   44MYC   4H12 5657   5.433   1.161   8.573
   44MYC    C64 5658   5.234   1.208   8.663
   44MYC   1H12 5659   5.183   1.117   8.630
   44MYC   2H12 5660   5.153   1.280   8.646
   44MYC    C63 5661   5.293   1.198   8.804
   44MYC   9H11 5662   5.316   1.300   8.834
   44MYC   0H12 5663   5.387   1.142   8.815
   44MYC    C62 5664   5.201   1.123   8.903
   44MYC   7H11 5665   5.169   1.022   8.875
   44MYC   8H11 5666   5.102   1.167   8.885
   44MYC    C61 5667   5.241   1.124   9.051
   44MYC   5H11 5668   5.266   1.229   9.069
   44MYC   6H11 5669   5.323   1.054   9.075
   44MYC    C60 5670   5.128   1.081   9.143
   44MYC   4H11 5671   5.080   0.986   9.120
   44MYC    C58 5672   5.142   1.102   9.292
   44MYC   1H11 5673   5.230   1.155   9.326
   44MYC    C59 5674   5.051   1.191   9.211
   44MYC   2H11 5675   4.948   1.174   9.241
   44MYC   3H11 5676   5.078   1.295   9.193
   44MYC    C57 5677   5.084   1.015   9.402
   44MYC   9H10 5678   5.152   0.935   9.435
   44MYC   0H11 5679   4.999   0.958   9.361
   44MYC    C56 5680   5.047   1.100   9.525
   44MYC   7H10 5681   4.949   1.146   9.506
   44MYC   8H10 5682   5.123   1.179   9.533
   44MYC    C55 5683   5.031   1.026   9.658
   44MYC   5H10 5684   5.115   0.956   9.661
   44MYC   6H10 5685   4.936   0.971   9.668
   44MYC    C54 5686   5.045   1.123   9.776
   44MYC   3H10 5687   4.979   1.210   9.764
   44MYC   4H10 5688   5.143   1.173   9.784
   44MYC    C53 5689   5.030   1.047   9.909
   44MYC   1H10 5690   5.093   0.958   9.903
   44MYC   2H10 5691   4.928   1.010   9.920
   44MYC    C52 5692   5.078   1.115  10.039
   44MYC    H99 5693   5.014   1.202  10.062
   44MYC   0H10 5694   5.179   1.153  10.022
   44MYC    C51 5695   5.076   1.028  10.166
   44MYC    H97 5696   5.118   0.929  10.145
   44MYC    H98 5697   4.971   1.000  10.180
   44MYC    C50 5698   5.148   1.096  10.283
   44MYC    H95 5699   5.102   1.195  10.294
   44MYC    H96 5700   5.254   1.110  10.257
   44MYC    C49 5701   5.141   1.017  10.415
   44MYC    H93 5702   5.225   0.946  10.420
   44MYC    H94 5703   5.043   0.969  10.414
   44MYC    C48 5704   5.163   1.109  10.536
   44MYC    H91 5705   5.078   1.179  10.543
   44MYC    H92 5706   5.255   1.162  10.507
   44MYC    C47 5707   5.180   1.018  10.659
   44MYC    H89 5708   5.277   0.965  10.660
   44MYC    H90 5709   5.096   0.949  10.655
   44MYC    C46 5710   5.182   1.103  10.787
   44MYC    H87 5711   5.091   1.164  10.791
   44MYC    H88 5712   5.267   1.172  10.774
   44MYC    C45 5713   5.193   1.021  10.916
   44MYC    H85 5714   5.291   1.032  10.963
   44MYC    H86 5715   5.180   0.916  10.885
   44MYC    C44 5716   5.079   1.053  11.014
   44MYC    H83 5717   5.083   0.972  11.088
   44MYC    H84 5718   4.980   1.038  10.970
   44MYC    C18 5719   5.098   1.184  11.090
   44MYC    H31 5720   5.180   1.165  11.158
   44MYC    C17 5721   5.095   1.320  11.025
   44MYC    H30 5722   5.071   1.319  10.919
   44MYC    C19 5723   4.986   1.280  11.121
   44MYC    H32 5724   4.888   1.256  11.079
   44MYC    H33 5725   4.980   1.307  11.226
   44MYC    C16 5726   5.196   1.428  11.064
   44MYC    H28 5727   5.293   1.413  11.016
   44MYC    H29 5728   5.208   1.426  11.173
   44MYC    C15 5729   5.137   1.564  11.024
   44MYC    H26 5730   5.206   1.638  11.066
   44MYC    H27 5731   5.035   1.575  11.064
   44MYC    C14 5732   5.128   1.585  10.872
   44MYC    H24 5733   5.042   1.532  10.829
   44MYC    H25 5734   5.224   1.552  10.832
   44MYC    C13 5735   5.119   1.732  10.829
   44MYC    H22 5736   5.216   1.780  10.848
   44MYC    H23 5737   5.044   1.784  10.891
   44MYC    C12 5738   5.093   1.752  10.679
   44MYC    H20 5739   4.992   1.723  10.648
   44MYC    H21 5740   5.157   1.694  10.612
   44MYC    C11 5741   5.111   1.901  10.643
   44MYC    H18 5742   5.218   1.928  10.648
   44MYC    H19 5743   5.055   1.954  10.720
   44MYC    C10 5744   5.067   1.933  10.499
   44MYC    H16 5745   5.061   2.042  10.488
   44MYC    H17 5746   4.966   1.891  10.494
   44MYC     C9 5747   5.146   1.864  10.386
   44MYC    H14 5748   5.108   1.762  10.377
   44MYC    H15 5749   5.254   1.872  10.404
   44MYC     C8 5750   5.124   1.944  10.256
   44MYC    H12 5751   5.178   2.039  10.251
   44MYC    H13 5752   5.019   1.973  10.267
   44MYC     C7 5753   5.146   1.859  10.129
   44MYC    H10 5754   5.065   1.788  10.111
   44MYC    H11 5755   5.233   1.793  10.135
   44MYC     C6 5756   5.162   1.939   9.999
   44MYC     H8 5757   5.257   1.994   9.992
   44MYC     H9 5758   5.090   2.022   9.996
   44MYC     C5 5759   5.140   1.847   9.877
   44MYC     H6 5760   5.044   1.794   9.887
   44MYC     H7 5761   5.211   1.765   9.889
   44MYC     C4 5762   5.145   1.920   9.742
   44MYC     H4 5763   5.240   1.972   9.727
   44MYC     H5 5764   5.059   1.988   9.744
   44MYC     C2 5765   5.130   1.829   9.619
   44MYC     H2 5766   5.216   1.861   9.559
   44MYC     O3 5767   5.140   1.693   9.659
   44MYC     H3 5768   5.191   1.647   9.590
   44MYC     C1 5769   5.008   1.851   9.527
   44MYC     H1 5770   5.013   1.952   9.484
   44MYC    C81 5771   4.874   1.843   9.598
   44MYC    O82 5772   4.853   1.782   9.702
   44MYC    O83 5773   4.772   1.887   9.521
   44MYC   6H15 5774   4.696   1.870   9.580
   44MYC    C20 5775   5.007   1.751   9.411
   44MYC    H34 5776   4.998   1.651   9.456
   44MYC    H35 5777   4.915   1.773   9.355
   44MYC    C21 5778   5.130   1.750   9.318
   44MYC    H36 5779   5.143   1.852   9.280
   44MYC    H37 5780   5.226   1.740   9.370
   44MYC    C22 5781   5.102   1.657   9.199
   44MYC    H38 5782   5.123   1.553   9.224
   44MYC    H39 5783   4.996   1.660   9.169
   44MYC    C23 5784   5.190   1.704   9.082
   44MYC    H40 5785   5.175   1.807   9.047
   44MYC    H41 5786   5.293   1.690   9.119
   44MYC    C24 5787   5.182   1.606   8.964
   44MYC    H42 5788   5.190   1.501   8.994
   44MYC    H43 5789   5.078   1.616   8.930
   44MYC    C25 5790   5.278   1.639   8.849
   44MYC    H44 5791   5.312   1.743   8.863
   44MYC    H45 5792   5.363   1.573   8.868
   44MYC    C26 5793   5.221   1.612   8.709
   44MYC    H46 5794   5.208   1.505   8.688
   44MYC    H47 5795   5.130   1.674   8.701
   44MYC    C27 5796   5.312   1.672   8.600
   44MYC    H48 5797   5.331   1.778   8.619
   44MYC    H49 5798   5.410   1.622   8.593
   44MYC    C28 5799   5.244   1.657   8.463
   44MYC    H50 5800   5.258   1.556   8.422
   44MYC    H51 5801   5.137   1.670   8.485
   44MYC    C29 5802   5.289   1.752   8.352
   44MYC    H52 5803   5.275   1.857   8.380
   44MYC    H53 5804   5.397   1.748   8.335
   44MYC    C30 5805   5.206   1.723   8.226
   44MYC    H54 5806   5.185   1.615   8.224
   44MYC    H55 5807   5.119   1.790   8.236
   44MYC    C31 5808   5.284   1.750   8.096
   44MYC    H56 5809   5.335   1.846   8.109
   44MYC    H57 5810   5.360   1.674   8.074
   44MYC    C32 5811   5.195   1.758   7.971
   44MYC    H58 5812   5.116   1.682   7.971
   44MYC    H59 5813   5.145   1.852   7.996
   44MYC    C33 5814   5.260   1.767   7.832
   44MYC    H60 5815   5.297   1.870   7.829
   44MYC    H61 5816   5.334   1.685   7.833
   44MYC    C34 5817   5.171   1.763   7.706
   44MYC    H62 5818   5.145   1.657   7.703
   44MYC    H63 5819   5.076   1.813   7.727
   44MYC    C35 5820   5.236   1.811   7.575
   44MYC    H64 5821   5.258   1.918   7.583
   44MYC    H65 5822   5.333   1.761   7.561
   44MYC    C36 5823   5.143   1.784   7.456
   44MYC    H66 5824   5.109   1.681   7.471
   44MYC    H67 5825   5.053   1.845   7.466
   44MYC    C37 5826   5.207   1.806   7.317
   44MYC    H68 5827   5.274   1.893   7.313
   44MYC    H69 5828   5.282   1.728   7.301
   44MYC    C38 5829   5.108   1.806   7.199
   44MYC    H70 5830   5.043   1.720   7.218
   44MYC    H71 5831   5.035   1.888   7.200
   44MYC    C39 5832   5.176   1.780   7.064
   44MYC    H72 5833   5.263   1.846   7.055
   44MYC    H73 5834   5.219   1.680   7.062
   44MYC    C40 5835   5.084   1.804   6.943
   44MYC    H74 5836   4.986   1.757   6.957
   44MYC    H75 5837   5.052   1.909   6.940
   44MYC    C41 5838   5.139   1.769   6.804
   44MYC    H76 5839   5.222   1.836   6.777
   44MYC    H77 5840   5.182   1.668   6.805
   44MYC    C42 5841   5.033   1.775   6.692
   44MYC    H78 5842   4.951   1.704   6.705
   44MYC    H79 5843   4.984   1.873   6.697
   44MYC    C43 5844   5.088   1.757   6.549
   44MYC    H80 5845   5.003   1.759   6.479
   44MYC    H81 5846   5.141   1.662   6.531
   44MYC    H82 5847   5.143   1.845   6.515
   45MYC   5H15 5848   6.069   1.306   6.586
   45MYC    C80 5849   6.008   1.299   6.678
   45MYC   3H15 5850   5.935   1.381   6.674
   45MYC   4H15 5851   5.955   1.205   6.660
   45MYC    C79 5852   6.088   1.301   6.809
   45MYC   1H15 5853   6.159   1.385   6.809
   45MYC   2H15 5854   6.146   1.209   6.818
   45MYC    C78 5855   6.006   1.296   6.939
   45MYC   9H14 5856   5.936   1.212   6.932
   45MYC   0H15 5857   5.939   1.382   6.952
   45MYC    C77 5858   6.097   1.279   7.062
   45MYC   7H14 5859   6.166   1.362   7.076
   45MYC   8H14 5860   6.157   1.187   7.064
   45MYC    C76 5861   6.013   1.273   7.190
   45MYC   5H14 5862   5.935   1.197   7.179
   45MYC   6H14 5863   5.969   1.371   7.214
   45MYC    C75 5864   6.095   1.235   7.315
   45MYC   3H14 5865   6.189   1.291   7.323
   45MYC   4H14 5866   6.123   1.129   7.316
   45MYC    C74 5867   6.010   1.268   7.439
   45MYC   1H14 5868   5.919   1.208   7.429
   45MYC   2H14 5869   5.974   1.372   7.446
   45MYC    C73 5870   6.077   1.223   7.570
   45MYC   9H13 5871   6.180   1.260   7.579
   45MYC   0H14 5872   6.079   1.114   7.568
   45MYC    C72 5873   6.008   1.273   7.699
   45MYC   7H13 5874   5.910   1.228   7.717
   45MYC   8H13 5875   5.990   1.380   7.688
   45MYC    C71 5876   6.103   1.245   7.817
   45MYC   5H13 5877   6.199   1.293   7.794
   45MYC   6H13 5878   6.113   1.137   7.833
   45MYC    C70 5879   6.035   1.294   7.946
   45MYC   3H13 5880   5.935   1.250   7.955
   45MYC   4H13 5881   6.023   1.403   7.957
   45MYC    C69 5882   6.117   1.256   8.070
   45MYC   1H13 5883   6.223   1.272   8.048
   45MYC   2H13 5884   6.103   1.151   8.099
   45MYC    C68 5885   6.069   1.333   8.195
   45MYC   9H12 5886   5.966   1.311   8.223
   45MYC   0H13 5887   6.083   1.441   8.178
   45MYC    C67 5888   6.157   1.291   8.314
   45MYC   7H12 5889   6.262   1.304   8.283
   45MYC   8H12 5890   6.140   1.184   8.331
   45MYC    C66 5891   6.118   1.370   8.440
   45MYC   5H12 5892   6.011   1.365   8.464
   45MYC   6H12 5893   6.143   1.476   8.429
   45MYC    C65 5894   6.193   1.325   8.566
   45MYC   3H12 5895   6.301   1.322   8.542
   45MYC   4H12 5896   6.161   1.222   8.587
   45MYC    C64 5897   6.172   1.406   8.695
   45MYC   1H12 5898   6.067   1.418   8.721
   45MYC   2H12 5899   6.211   1.508   8.686
   45MYC    C63 5900   6.248   1.335   8.808
   45MYC   9H11 5901   6.355   1.352   8.786
   45MYC   0H12 5902   6.252   1.226   8.802
   45MYC    C62 5903   6.227   1.386   8.952
   45MYC   7H11 5904   6.124   1.382   8.990
   45MYC   8H11 5905   6.267   1.485   8.973
   45MYC    C61 5906   6.304   1.293   9.046
   45MYC   5H11 5907   6.399   1.260   9.002
   45MYC   6H11 5908   6.246   1.200   9.057
   45MYC    C60 5909   6.329   1.353   9.184
   45MYC   4H11 5910   6.241   1.365   9.247
   45MYC    C58 5911   6.453   1.307   9.256
   45MYC   1H11 5912   6.507   1.228   9.205
   45MYC    C59 5913   6.445   1.447   9.201
   45MYC   2H11 5914   6.434   1.529   9.272
   45MYC   3H11 5915   6.497   1.467   9.107
   45MYC    C57 5916   6.437   1.268   9.403
   45MYC   9H10 5917   6.535   1.225   9.429
   45MYC   0H11 5918   6.365   1.187   9.418
   45MYC    C56 5919   6.408   1.385   9.498
   45MYC   7H10 5920   6.319   1.441   9.465
   45MYC   8H10 5921   6.486   1.460   9.478
   45MYC    C55 5922   6.395   1.348   9.647
   45MYC   5H10 5923   6.391   1.446   9.698
   45MYC   6H10 5924   6.486   1.303   9.687
   45MYC    C54 5925   6.266   1.283   9.698
   45MYC   3H10 5926   6.257   1.203   9.623
   45MYC   4H10 5927   6.193   1.365   9.687
   45MYC    C53 5928   6.265   1.228   9.841
   45MYC   1H10 5929   6.332   1.144   9.861
   45MYC   2H10 5930   6.159   1.199   9.851
   45MYC    C52 5931   6.290   1.332   9.952
   45MYC    H99 5932   6.206   1.403   9.954
   45MYC   0H10 5933   6.384   1.383   9.931
   45MYC    C51 5934   6.292   1.259  10.087
   45MYC    H97 5935   6.381   1.196  10.103
   45MYC    H98 5936   6.200   1.201  10.098
   45MYC    C50 5937   6.286   1.367  10.196
   45MYC    H95 5938   6.200   1.434  10.185
   45MYC    H96 5939   6.376   1.429  10.195
   45MYC    C49 5940   6.281   1.302  10.336
   45MYC    H93 5941   6.385   1.278  10.363
   45MYC    H94 5942   6.217   1.213  10.333
   45MYC    C48 5943   6.216   1.389  10.445
   45MYC    H91 5944   6.119   1.428  10.413
   45MYC    H92 5945   6.274   1.481  10.463
   45MYC    C47 5946   6.215   1.313  10.578
   45MYC    H89 5947   6.315   1.302  10.620
   45MYC    H90 5948   6.184   1.210  10.561
   45MYC    C46 5949   6.127   1.384  10.683
   45MYC    H87 5950   6.020   1.381  10.658
   45MYC    H88 5951   6.163   1.487  10.688
   45MYC    C45 5952   6.148   1.331  10.826
   45MYC    H85 5953   6.236   1.366  10.882
   45MYC    H86 5954   6.152   1.222  10.817
   45MYC    C44 5955   6.029   1.371  10.914
   45MYC    H83 5956   6.051   1.327  11.012
   45MYC    H84 5957   5.933   1.335  10.875
   45MYC    C18 5958   6.023   1.523  10.928
   45MYC    H31 5959   6.042   1.585  10.841
   45MYC    C17 5960   5.924   1.575  11.029
   45MYC    H30 5961   5.873   1.506  11.095
   45MYC    C19 5962   6.072   1.586  11.056
   45MYC    H32 5963   6.134   1.526  11.123
   45MYC    H33 5964   6.120   1.683  11.049
   45MYC    C16 5965   5.848   1.704  10.999
   45MYC    H28 5966   5.921   1.773  10.954
   45MYC    H29 5967   5.820   1.748  11.095
   45MYC    C15 5968   5.724   1.678  10.913
   45MYC    H26 5969   5.642   1.739  10.953
   45MYC    H27 5970   5.691   1.573  10.907
   45MYC    C14 5971   5.766   1.715  10.769
   45MYC    H24 5972   5.835   1.641  10.728
   45MYC    H25 5973   5.827   1.806  10.763
   45MYC    C13 5974   5.649   1.734  10.671
   45MYC    H22 5975   5.687   1.785  10.582
   45MYC    H23 5976   5.573   1.800  10.716
   45MYC    C12 5977   5.587   1.604  10.618
   45MYC    H20 5978   5.572   1.529  10.697
   45MYC    H21 5979   5.660   1.551  10.555
   45MYC    C11 5980   5.453   1.638  10.550
   45MYC    H18 5981   5.467   1.699  10.460
   45MYC    H19 5982   5.395   1.701  10.618
   45MYC    C10 5983   5.371   1.513  10.512
   45MYC    H16 5984   5.277   1.542  10.463
   45MYC    H17 5985   5.339   1.458  10.602
   45MYC     C9 5986   5.443   1.422  10.412
   45MYC    H14 5987   5.388   1.327  10.408
   45MYC    H15 5988   5.542   1.398  10.452
   45MYC     C8 5989   5.446   1.494  10.276
   45MYC    H12 5990   5.527   1.569  10.278
   45MYC    H13 5991   5.352   1.549  10.261
   45MYC     C7 5992   5.469   1.406  10.152
   45MYC    H10 5993   5.389   1.332  10.139
   45MYC    H11 5994   5.558   1.344  10.163
   45MYC     C6 5995   5.475   1.503  10.033
   45MYC     H8 5996   5.566   1.564  10.046
   45MYC     H9 5997   5.391   1.574  10.029
   45MYC     C5 5998   5.480   1.431   9.897
   45MYC     H6 5999   5.385   1.377   9.883
   45MYC     H7 6000   5.553   1.350   9.903
   45MYC     C4 6001   5.511   1.531   9.785
   45MYC     H4 6002   5.606   1.584   9.798
   45MYC     H5 6003   5.434   1.609   9.785
   45MYC     C2 6004   5.514   1.472   9.644
   45MYC     H2 6005   5.584   1.388   9.657
   45MYC     O3 6006   5.385   1.441   9.593
   45MYC     H3 6007   5.343   1.378   9.654
   45MYC     C1 6008   5.591   1.558   9.542
   45MYC     H1 6009   5.697   1.562   9.571
   45MYC    C81 6010   5.540   1.701   9.555
   45MYC    O82 6011   5.446   1.751   9.495
   45MYC    O83 6012   5.609   1.770   9.648
   45MYC   6H15 6013   5.561   1.855   9.642
   45MYC    C20 6014   5.585   1.499   9.400
   45MYC    H34 6015   5.617   1.395   9.407
   45MYC    H35 6016   5.481   1.502   9.368
   45MYC    C21 6017   5.683   1.565   9.301
   45MYC    H36 6018   5.678   1.675   9.307
   45MYC    H37 6019   5.786   1.544   9.332
   45MYC    C22 6020   5.643   1.509   9.164
   45MYC    H38 6021   5.647   1.399   9.173
   45MYC    H39 6022   5.540   1.542   9.143
   45MYC    C23 6023   5.730   1.565   9.051
   45MYC    H40 6024   5.721   1.674   9.055
   45MYC    H41 6025   5.833   1.536   9.073
   45MYC    C24 6026   5.682   1.507   8.917
   45MYC    H42 6027   5.696   1.398   8.912
   45MYC    H43 6028   5.577   1.533   8.897
   45MYC    C25 6029   5.761   1.567   8.800
   45MYC    H44 6030   5.780   1.674   8.815
   45MYC    H45 6031   5.863   1.531   8.810
   45MYC    C26 6032   5.705   1.527   8.662
   45MYC    H46 6033   5.722   1.420   8.650
   45MYC    H47 6034   5.596   1.538   8.657
   45MYC    C27 6035   5.777   1.597   8.545
   45MYC    H48 6036   5.772   1.703   8.571
   45MYC    H49 6037   5.885   1.579   8.547
   45MYC    C28 6038   5.712   1.561   8.411
   45MYC    H50 6039   5.694   1.453   8.403
   45MYC    H51 6040   5.610   1.603   8.411
   45MYC    C29 6041   5.778   1.615   8.283
   45MYC    H52 6042   5.807   1.720   8.296
   45MYC    H53 6043   5.876   1.567   8.272
   45MYC    C30 6044   5.687   1.600   8.160
   45MYC    H54 6045   5.668   1.492   8.159
   45MYC    H55 6046   5.597   1.660   8.178
   45MYC    C31 6047   5.758   1.640   8.030
   45MYC    H56 6048   5.792   1.744   8.030
   45MYC    H57 6049   5.850   1.580   8.017
   45MYC    C32 6050   5.662   1.615   7.912
   45MYC    H58 6051   5.637   1.509   7.914
   45MYC    H59 6052   5.573   1.678   7.897
   45MYC    C33 6053   5.734   1.652   7.782
   45MYC    H60 6054   5.745   1.761   7.775
   45MYC    H61 6055   5.837   1.615   7.788
   45MYC    C34 6056   5.667   1.602   7.653
   45MYC    H62 6057   5.636   1.497   7.658
   45MYC    H63 6058   5.580   1.668   7.641
   45MYC    C35 6059   5.752   1.633   7.528
   45MYC    H64 6060   5.792   1.735   7.526
   45MYC    H65 6061   5.840   1.567   7.534
   45MYC    C36 6062   5.665   1.602   7.405
   45MYC    H66 6063   5.639   1.496   7.401
   45MYC    H67 6064   5.570   1.656   7.412
   45MYC    C37 6065   5.751   1.634   7.281
   45MYC    H68 6066   5.791   1.735   7.292
   45MYC    H69 6067   5.845   1.578   7.284
   45MYC    C38 6068   5.684   1.626   7.142
   45MYC    H70 6069   5.648   1.527   7.114
   45MYC    H71 6070   5.605   1.702   7.141
   45MYC    C39 6071   5.784   1.676   7.036
   45MYC    H72 6072   5.830   1.774   7.055
   45MYC    H73 6073   5.866   1.603   7.028
   45MYC    C40 6074   5.717   1.686   6.898
   45MYC    H74 6075   5.667   1.590   6.878
   45MYC    H75 6076   5.650   1.773   6.911
   45MYC    C41 6077   5.825   1.721   6.796
   45MYC    H76 6078   5.860   1.823   6.819
   45MYC    H77 6079   5.911   1.655   6.811
   45MYC    C42 6080   5.788   1.693   6.649
   45MYC    H78 6081   5.774   1.584   6.643
   45MYC    H79 6082   5.690   1.737   6.625
   45MYC    C43 6083   5.894   1.741   6.549
   45MYC    H80 6084   5.859   1.703   6.452
   45MYC    H81 6085   5.996   1.711   6.576
   45MYC    H82 6086   5.894   1.851   6.553
   46MYC   5H15 6087   0.583   2.540   6.689
   46MYC    C80 6088   0.575   2.461   6.764
   46MYC   3H15 6089   0.471   2.429   6.773
   46MYC   4H15 6090   0.637   2.373   6.740
   46MYC    C79 6091   0.613   2.516   6.903
   46MYC   1H15 6092   0.564   2.613   6.917
   46MYC   2H15 6093   0.722   2.533   6.905
   46MYC    C78 6094   0.574   2.418   7.015
   46MYC   9H14 6095   0.640   2.331   7.006
   46MYC   0H15 6096   0.467   2.394   7.006
   46MYC    C77 6097   0.596   2.478   7.155
   46MYC   7H14 6098   0.586   2.587   7.151
   46MYC   8H14 6099   0.701   2.461   7.180
   46MYC    C76 6100   0.512   2.415   7.268
   46MYC   5H14 6101   0.511   2.306   7.270
   46MYC   6H14 6102   0.407   2.448   7.262
   46MYC    C75 6103   0.566   2.469   7.402
   46MYC   3H14 6104   0.558   2.578   7.407
   46MYC   4H14 6105   0.672   2.446   7.418
   46MYC    C74 6106   0.492   2.402   7.519
   46MYC   1H14 6107   0.523   2.298   7.526
   46MYC   2H14 6108   0.384   2.385   7.504
   46MYC    C73 6109   0.516   2.493   7.641
   46MYC   9H13 6110   0.468   2.590   7.621
   46MYC   0H14 6111   0.623   2.508   7.657
   46MYC    C72 6112   0.457   2.434   7.770
   46MYC   7H13 6113   0.501   2.335   7.784
   46MYC   8H13 6114   0.347   2.436   7.771
   46MYC    C71 6115   0.484   2.532   7.885
   46MYC   5H13 6116   0.402   2.605   7.889
   46MYC   6H13 6117   0.572   2.596   7.870
   46MYC    C70 6118   0.504   2.462   8.021
   46MYC   3H13 6119   0.603   2.416   8.026
   46MYC   4H13 6120   0.430   2.383   8.036
   46MYC    C69 6121   0.496   2.558   8.141
   46MYC   1H13 6122   0.400   2.609   8.155
   46MYC   2H13 6123   0.576   2.632   8.129
   46MYC    C68 6124   0.536   2.494   8.275
   46MYC   9H12 6125   0.644   2.476   8.275
   46MYC   0H13 6126   0.495   2.393   8.289
   46MYC    C67 6127   0.490   2.580   8.394
   46MYC   7H12 6128   0.381   2.580   8.403
   46MYC   8H12 6129   0.509   2.686   8.371
   46MYC    C66 6130   0.549   2.541   8.531
   46MYC   5H12 6131   0.658   2.537   8.535
   46MYC   6H12 6132   0.524   2.437   8.553
   46MYC    C65 6133   0.496   2.628   8.646
   46MYC   3H12 6134   0.387   2.628   8.658
   46MYC   4H12 6135   0.517   2.734   8.628
   46MYC    C64 6136   0.566   2.588   8.778
   46MYC   1H12 6137   0.675   2.588   8.768
   46MYC   2H12 6138   0.539   2.486   8.809
   46MYC    C63 6139   0.517   2.681   8.890
   46MYC   9H11 6140   0.408   2.681   8.898
   46MYC   0H12 6141   0.548   2.782   8.861
   46MYC    C62 6142   0.572   2.640   9.027
   46MYC   7H11 6143   0.674   2.602   9.013
   46MYC   8H11 6144   0.508   2.567   9.078
   46MYC    C61 6145   0.569   2.760   9.124
   46MYC   5H11 6146   0.475   2.815   9.129
   46MYC   6H11 6147   0.646   2.829   9.087
   46MYC    C60 6148   0.608   2.712   9.263
   46MYC   4H11 6149   0.698   2.652   9.262
   46MYC    C58 6150   0.573   2.799   9.382
   46MYC   1H11 6151   0.508   2.886   9.373
   46MYC    C59 6152   0.497   2.671   9.357
   46MYC   2H11 6153   0.518   2.582   9.416
   46MYC   3H11 6154   0.392   2.687   9.336
   46MYC    C57 6155   0.658   2.799   9.509
   46MYC   9H10 6156   0.711   2.894   9.515
   46MYC   0H11 6157   0.725   2.712   9.505
   46MYC    C56 6158   0.572   2.794   9.636
   46MYC   7H10 6159   0.508   2.704   9.637
   46MYC   8H10 6160   0.497   2.873   9.651
   46MYC    C55 6161   0.662   2.799   9.761
   46MYC   5H10 6162   0.709   2.898   9.762
   46MYC   6H10 6163   0.750   2.734   9.753
   46MYC    C54 6164   0.590   2.751   9.888
   46MYC   3H10 6165   0.589   2.642   9.895
   46MYC   4H10 6166   0.488   2.792   9.891
   46MYC    C53 6167   0.654   2.818  10.011
   46MYC   1H10 6168   0.618   2.922  10.015
   46MYC   2H10 6169   0.763   2.823  10.011
   46MYC    C52 6170   0.623   2.734  10.136
   46MYC    H99 6171   0.646   2.630  10.111
   46MYC   0H10 6172   0.514   2.726  10.152
   46MYC    C51 6173   0.708   2.768  10.260
   46MYC    H97 6174   0.727   2.876  10.269
   46MYC    H98 6175   0.808   2.726  10.245
   46MYC    C50 6176   0.640   2.715  10.387
   46MYC    H95 6177   0.595   2.616  10.376
   46MYC    H96 6178   0.565   2.787  10.422
   46MYC    C49 6179   0.741   2.703  10.503
   46MYC    H93 6180   0.749   2.802  10.550
   46MYC    H94 6181   0.837   2.673  10.458
   46MYC    C48 6182   0.696   2.609  10.615
   46MYC    H91 6183   0.695   2.508  10.573
   46MYC    H92 6184   0.593   2.633  10.645
   46MYC    C47 6185   0.793   2.612  10.734
   46MYC    H89 6186   0.801   2.712  10.779
   46MYC    H90 6187   0.892   2.582  10.696
   46MYC    C46 6188   0.731   2.521  10.841
   46MYC    H87 6189   0.681   2.438  10.790
   46MYC    H88 6190   0.645   2.573  10.885
   46MYC    C45 6191   0.833   2.468  10.943
   46MYC    H85 6192   0.883   2.545  11.003
   46MYC    H86 6193   0.910   2.417  10.884
   46MYC    C44 6194   0.763   2.367  11.035
   46MYC    H83 6195   0.821   2.357  11.127
   46MYC    H84 6196   0.765   2.272  10.980
   46MYC    C18 6197   0.623   2.397  11.088
   46MYC    H31 6198   0.596   2.501  11.107
   46MYC    C17 6199   0.510   2.304  11.053
   46MYC    H30 6200   0.528   2.221  10.984
   46MYC    C19 6201   0.574   2.297  11.189
   46MYC    H32 6202   0.641   2.219  11.225
   46MYC    H33 6203   0.507   2.329  11.269
   46MYC    C16 6204   0.362   2.336  11.052
   46MYC    H28 6205   0.347   2.421  10.983
   46MYC    H29 6206   0.327   2.357  11.154
   46MYC    C15 6207   0.267   2.229  10.995
   46MYC    H26 6208   0.166   2.245  11.035
   46MYC    H27 6209   0.297   2.133  11.037
   46MYC    C14 6210   0.254   2.225  10.842
   46MYC    H24 6211   0.353   2.223  10.794
   46MYC    H25 6212   0.207   2.314  10.798
   46MYC    C13 6213   0.180   2.104  10.783
   46MYC    H22 6214   0.093   2.065  10.838
   46MYC    H23 6215   0.238   2.011  10.788
   46MYC    C12 6216   0.156   2.120  10.632
   46MYC    H20 6217   0.121   2.022  10.598
   46MYC    H21 6218   0.247   2.152  10.581
   46MYC    C11 6219   0.049   2.222  10.588
   46MYC    H18 6220   0.087   2.321  10.615
   46MYC    H19 6221  -0.048   2.207  10.637
   46MYC    C10 6222   0.026   2.221  10.436
   46MYC    H16 6223  -0.066   2.277  10.416
   46MYC    H17 6224   0.018   2.115  10.410
   46MYC     C9 6225   0.142   2.285  10.359
   46MYC    H14 6226   0.238   2.240  10.389
   46MYC    H15 6227   0.152   2.392  10.383
   46MYC     C8 6228   0.111   2.271  10.209
   46MYC    H12 6229   0.003   2.283  10.198
   46MYC    H13 6230   0.128   2.165  10.188
   46MYC     C7 6231   0.187   2.375  10.124
   46MYC    H10 6232   0.296   2.374  10.136
   46MYC    H11 6233   0.146   2.470  10.161
   46MYC     C6 6234   0.155   2.352   9.976
   46MYC     H8 6235   0.051   2.378   9.950
   46MYC     H9 6236   0.164   2.245   9.955
   46MYC     C5 6237   0.248   2.433   9.884
   46MYC     H6 6238   0.345   2.384   9.894
   46MYC     H7 6239   0.245   2.536   9.920
   46MYC     C4 6240   0.210   2.440   9.735
   46MYC     H4 6241   0.285   2.513   9.702
   46MYC     H5 6242   0.109   2.480   9.717
   46MYC     C2 6243   0.239   2.314   9.652
   46MYC     H2 6244   0.311   2.356   9.582
   46MYC     O3 6245   0.296   2.203   9.721
   46MYC     H3 6246   0.220   2.163   9.767
   46MYC     C1 6247   0.117   2.272   9.568
   46MYC     H1 6248   0.079   2.368   9.531
   46MYC    C81 6249   0.021   2.214   9.670
   46MYC    O82 6250   0.023   2.100   9.714
   46MYC    O83 6251  -0.091   2.287   9.690
   46MYC   6H15 6252  -0.133   2.239   9.764
   46MYC    C20 6253   0.148   2.175   9.453
   46MYC    H34 6254   0.206   2.087   9.483
   46MYC    H35 6255   0.056   2.133   9.412
   46MYC    C21 6256   0.225   2.243   9.337
   46MYC    H36 6257   0.164   2.324   9.295
   46MYC    H37 6258   0.324   2.279   9.366
   46MYC    C22 6259   0.252   2.147   9.220
   46MYC    H38 6260   0.333   2.075   9.240
   46MYC    H39 6261   0.171   2.078   9.195
   46MYC    C23 6262   0.290   2.222   9.092
   46MYC    H40 6263   0.213   2.298   9.074
   46MYC    H41 6264   0.382   2.282   9.093
   46MYC    C24 6265   0.291   2.132   8.967
   46MYC    H42 6266   0.373   2.061   8.982
   46MYC    H43 6267   0.196   2.079   8.963
   46MYC    C25 6268   0.297   2.212   8.836
   46MYC    H44 6269   0.219   2.288   8.840
   46MYC    H45 6270   0.391   2.269   8.834
   46MYC    C26 6271   0.271   2.123   8.712
   46MYC    H46 6272   0.356   2.057   8.694
   46MYC    H47 6273   0.183   2.060   8.726
   46MYC    C27 6274   0.255   2.221   8.595
   46MYC    H48 6275   0.173   2.292   8.612
   46MYC    H49 6276   0.341   2.286   8.575
   46MYC    C28 6277   0.225   2.139   8.468
   46MYC    H50 6278   0.291   2.051   8.468
   46MYC    H51 6279   0.126   2.097   8.487
   46MYC    C29 6280   0.231   2.220   8.338
   46MYC    H52 6281   0.167   2.309   8.330
   46MYC    H53 6282   0.330   2.264   8.323
   46MYC    C30 6283   0.192   2.122   8.226
   46MYC    H54 6284   0.249   2.029   8.236
   46MYC    H55 6285   0.085   2.099   8.240
   46MYC    C31 6286   0.218   2.184   8.088
   46MYC    H56 6287   0.166   2.280   8.076
   46MYC    H57 6288   0.326   2.203   8.088
   46MYC    C32 6289   0.180   2.093   7.969
   46MYC    H58 6290   0.264   2.022   7.965
   46MYC    H59 6291   0.089   2.034   7.981
   46MYC    C33 6292   0.188   2.171   7.836
   46MYC    H60 6293   0.168   2.276   7.859
   46MYC    H61 6294   0.292   2.172   7.800
   46MYC    C34 6295   0.100   2.127   7.718
   46MYC    H62 6296   0.115   2.019   7.709
   46MYC    H63 6297  -0.005   2.150   7.738
   46MYC    C35 6298   0.139   2.187   7.582
   46MYC    H64 6299   0.151   2.296   7.591
   46MYC    H65 6300   0.240   2.155   7.553
   46MYC    C36 6301   0.055   2.165   7.455
   46MYC    H66 6302   0.053   2.058   7.431
   46MYC    H67 6303  -0.045   2.206   7.475
   46MYC    C37 6304   0.101   2.242   7.331
   46MYC    H68 6305   0.112   2.348   7.359
   46MYC    H69 6306   0.199   2.201   7.303
   46MYC    C38 6307  -0.004   2.237   7.219
   46MYC    H70 6308  -0.039   2.135   7.196
   46MYC    H71 6309  -0.092   2.294   7.253
   46MYC    C39 6310   0.056   2.310   7.098
   46MYC    H72 6311   0.054   2.419   7.112
   46MYC    H73 6312   0.161   2.276   7.092
   46MYC    C40 6313  -0.017   2.280   6.966
   46MYC    H74 6314  -0.048   2.176   6.953
   46MYC    H75 6315  -0.117   2.327   6.973
   46MYC    C41 6316   0.055   2.339   6.844
   46MYC    H76 6317   0.053   2.447   6.861
   46MYC    H77 6318   0.157   2.298   6.844
   46MYC    C42 6319  -0.013   2.308   6.710
   46MYC    H78 6320  -0.015   2.202   6.685
   46MYC    H79 6321  -0.117   2.341   6.719
   46MYC    C43 6322   0.053   2.387   6.595
   46MYC    H80 6323   0.021   2.339   6.502
   46MYC    H81 6324   0.163   2.381   6.599
   46MYC    H82 6325   0.034   2.495   6.601
   47MYC   5H15 6326   1.534   2.405   6.709
   47MYC    C80 6327   1.463   2.444   6.784
   47MYC   3H15 6328   1.476   2.550   6.762
   47MYC   4H15 6329   1.360   2.409   6.771
   47MYC    C79 6330   1.518   2.413   6.925
   47MYC   1H15 6331   1.596   2.486   6.951
   47MYC   2H15 6332   1.556   2.310   6.932
   47MYC    C78 6333   1.411   2.438   7.033
   47MYC   9H14 6334   1.318   2.388   7.005
   47MYC   0H15 6335   1.383   2.543   7.034
   47MYC    C77 6336   1.451   2.391   7.174
   47MYC   7H14 6337   1.540   2.449   7.202
   47MYC   8H14 6338   1.480   2.285   7.171
   47MYC    C76 6339   1.340   2.423   7.276
   47MYC   5H14 6340   1.247   2.371   7.249
   47MYC   6H14 6341   1.315   2.529   7.289
   47MYC    C75 6342   1.373   2.363   7.413
   47MYC   3H14 6343   1.479   2.381   7.436
   47MYC   4H14 6344   1.356   2.254   7.409
   47MYC    C74 6345   1.289   2.431   7.522
   47MYC   1H14 6346   1.181   2.437   7.500
   47MYC   2H14 6347   1.312   2.539   7.517
   47MYC    C73 6348   1.326   2.377   7.661
   47MYC   9H13 6349   1.432   2.390   7.685
   47MYC   0H14 6350   1.310   2.270   7.646
   47MYC    C72 6351   1.245   2.440   7.776
   47MYC   7H13 6352   1.144   2.399   7.766
   47MYC   8H13 6353   1.242   2.547   7.752
   47MYC    C71 6354   1.305   2.412   7.915
   47MYC   5H13 6355   1.387   2.485   7.924
   47MYC   6H13 6356   1.343   2.309   7.919
   47MYC    C70 6357   1.209   2.451   8.028
   47MYC   3H13 6358   1.111   2.402   8.018
   47MYC   4H13 6359   1.197   2.560   8.028
   47MYC    C69 6360   1.264   2.414   8.167
   47MYC   1H13 6361   1.373   2.422   8.174
   47MYC   2H13 6362   1.241   2.309   8.187
   47MYC    C68 6363   1.197   2.493   8.281
   47MYC   9H12 6364   1.091   2.465   8.286
   47MYC   0H13 6365   1.216   2.601   8.270
   47MYC    C67 6366   1.260   2.447   8.413
   47MYC   7H12 6367   1.358   2.497   8.421
   47MYC   8H12 6368   1.271   2.338   8.415
   47MYC    C66 6369   1.173   2.491   8.531
   47MYC   5H12 6370   1.082   2.432   8.548
   47MYC   6H12 6371   1.139   2.594   8.514
   47MYC    C65 6372   1.249   2.485   8.665
   47MYC   3H12 6373   1.327   2.561   8.655
   47MYC   4H12 6374   1.298   2.386   8.666
   47MYC    C64 6375   1.157   2.520   8.783
   47MYC   1H12 6376   1.071   2.453   8.799
   47MYC   2H12 6377   1.118   2.621   8.764
   47MYC    C63 6378   1.243   2.536   8.909
   47MYC   9H11 6379   1.334   2.594   8.887
   47MYC   0H12 6380   1.275   2.437   8.942
   47MYC    C62 6381   1.163   2.597   9.026
   47MYC   7H11 6382   1.080   2.528   9.044
   47MYC   8H11 6383   1.107   2.687   8.996
   47MYC    C61 6384   1.245   2.630   9.152
   47MYC   5H11 6385   1.189   2.705   9.209
   47MYC   6H11 6386   1.333   2.682   9.112
   47MYC    C60 6387   1.287   2.509   9.234
   47MYC   4H11 6388   1.387   2.472   9.217
   47MYC    C58 6389   1.238   2.503   9.376
   47MYC   1H11 6390   1.172   2.581   9.413
   47MYC    C59 6391   1.185   2.405   9.274
   47MYC   2H11 6392   1.214   2.301   9.283
   47MYC   3H11 6393   1.082   2.427   9.247
   47MYC    C57 6394   1.325   2.454   9.491
   47MYC   9H10 6395   1.416   2.515   9.496
   47MYC   0H11 6396   1.357   2.352   9.466
   47MYC    C56 6397   1.260   2.468   9.629
   47MYC   7H10 6398   1.173   2.402   9.639
   47MYC   8H10 6399   1.219   2.569   9.642
   47MYC    C55 6400   1.364   2.437   9.738
   47MYC   5H10 6401   1.446   2.508   9.726
   47MYC   6H10 6402   1.426   2.349   9.719
   47MYC    C54 6403   1.305   2.431   9.880
   47MYC   3H10 6404   1.237   2.345   9.885
   47MYC   4H10 6405   1.240   2.519   9.888
   47MYC    C53 6406   1.414   2.433   9.989
   47MYC   1H10 6407   1.468   2.528   9.980
   47MYC   2H10 6408   1.483   2.348   9.978
   47MYC    C52 6409   1.354   2.422  10.130
   47MYC    H99 6410   1.283   2.338  10.134
   47MYC   0H10 6411   1.296   2.512  10.151
   47MYC    C51 6412   1.457   2.416  10.244
   47MYC    H97 6413   1.514   2.510  10.243
   47MYC    H98 6414   1.526   2.334  10.221
   47MYC    C50 6415   1.392   2.386  10.381
   47MYC    H95 6416   1.318   2.305  10.379
   47MYC    H96 6417   1.337   2.476  10.411
   47MYC    C49 6418   1.496   2.339  10.483
   47MYC    H93 6419   1.573   2.413  10.508
   47MYC    H94 6420   1.540   2.246  10.444
   47MYC    C48 6421   1.431   2.298  10.617
   47MYC    H91 6422   1.332   2.255  10.596
   47MYC    H92 6423   1.404   2.389  10.672
   47MYC    C47 6424   1.520   2.199  10.692
   47MYC    H89 6425   1.623   2.236  10.688
   47MYC    H90 6426   1.522   2.104  10.638
   47MYC    C46 6427   1.486   2.185  10.841
   47MYC    H87 6428   1.550   2.107  10.885
   47MYC    H88 6429   1.385   2.143  10.849
   47MYC    C45 6430   1.499   2.308  10.932
   47MYC    H85 6431   1.425   2.387  10.914
   47MYC    H86 6432   1.593   2.355  10.901
   47MYC    C44 6433   1.499   2.263  11.079
   47MYC    H83 6434   1.573   2.320  11.138
   47MYC    H84 6435   1.538   2.162  11.099
   47MYC    C18 6436   1.364   2.282  11.147
   47MYC    H31 6437   1.305   2.364  11.108
   47MYC    C17 6438   1.281   2.172  11.206
   47MYC    H30 6439   1.318   2.072  11.186
   47MYC    C19 6440   1.368   2.256  11.295
   47MYC    H32 6441   1.460   2.218  11.339
   47MYC    H33 6442   1.318   2.333  11.355
   47MYC    C16 6443   1.131   2.183  11.230
   47MYC    H28 6444   1.098   2.287  11.218
   47MYC    H29 6445   1.107   2.161  11.335
   47MYC    C15 6446   1.049   2.088  11.140
   47MYC    H26 6447   0.943   2.091  11.166
   47MYC    H27 6448   1.079   1.984  11.159
   47MYC    C14 6449   1.055   2.116  10.989
   47MYC    H24 6450   1.156   2.134  10.952
   47MYC    H25 6451   1.011   2.215  10.969
   47MYC    C13 6452   0.987   2.003  10.911
   47MYC    H22 6453   0.885   1.993  10.951
   47MYC    H23 6454   1.048   1.914  10.936
   47MYC    C12 6455   0.999   2.020  10.759
   47MYC    H20 6456   1.101   2.011  10.720
   47MYC    H21 6457   0.974   2.124  10.736
   47MYC    C11 6458   0.907   1.924  10.681
   47MYC    H18 6459   0.806   1.953  10.711
   47MYC    H19 6460   0.930   1.826  10.725
   47MYC    C10 6461   0.924   1.919  10.528
   47MYC    H16 6462   0.839   1.860  10.491
   47MYC    H17 6463   1.012   1.855  10.510
   47MYC     C9 6464   0.946   2.051  10.453
   47MYC    H14 6465   1.051   2.082  10.468
   47MYC    H15 6466   0.879   2.120  10.505
   47MYC     C8 6467   0.916   2.046  10.303
   47MYC    H12 6468   0.809   2.028  10.287
   47MYC    H13 6469   0.976   1.964  10.260
   47MYC     C7 6470   0.958   2.180  10.241
   47MYC    H10 6471   1.068   2.187  10.244
   47MYC    H11 6472   0.923   2.259  10.309
   47MYC     C6 6473   0.888   2.206  10.107
   47MYC     H8 6474   0.779   2.192  10.113
   47MYC     H9 6475   0.928   2.131  10.038
   47MYC     C5 6476   0.921   2.345  10.050
   47MYC     H6 6477   1.029   2.362  10.035
   47MYC     H7 6478   0.897   2.415  10.130
   47MYC     C4 6479   0.837   2.384   9.927
   47MYC     H4 6480   0.812   2.491   9.929
   47MYC     H5 6481   0.739   2.335   9.934
   47MYC     C2 6482   0.893   2.350   9.788
   47MYC     H2 6483   0.983   2.410   9.769
   47MYC     O3 6484   0.926   2.212   9.779
   47MYC     H3 6485   1.018   2.197   9.808
   47MYC     C1 6486   0.803   2.375   9.666
   47MYC     H1 6487   0.784   2.482   9.658
   47MYC    C81 6488   0.664   2.315   9.680
   47MYC    O82 6489   0.575   2.380   9.732
   47MYC    O83 6490   0.636   2.184   9.662
   47MYC   6H15 6491   0.556   2.177   9.716
   47MYC    C20 6492   0.865   2.328   9.533
   47MYC    H34 6493   0.975   2.335   9.540
   47MYC    H35 6494   0.852   2.221   9.516
   47MYC    C21 6495   0.823   2.407   9.407
   47MYC    H36 6496   0.720   2.441   9.420
   47MYC    H37 6497   0.885   2.498   9.404
   47MYC    C22 6498   0.832   2.337   9.270
   47MYC    H38 6499   0.870   2.417   9.206
   47MYC    H39 6500   0.907   2.257   9.271
   47MYC    C23 6501   0.696   2.287   9.220
   47MYC    H40 6502   0.663   2.222   9.302
   47MYC    H41 6503   0.616   2.362   9.212
   47MYC    C24 6504   0.701   2.198   9.094
   47MYC    H42 6505   0.772   2.116   9.112
   47MYC    H43 6506   0.606   2.148   9.075
   47MYC    C25 6507   0.749   2.284   8.976
   47MYC    H44 6508   0.690   2.377   8.972
   47MYC    H45 6509   0.852   2.318   8.992
   47MYC    C26 6510   0.727   2.212   8.842
   47MYC    H46 6511   0.762   2.108   8.852
   47MYC    H47 6512   0.618   2.208   8.826
   47MYC    C27 6513   0.811   2.270   8.727
   47MYC    H48 6514   0.803   2.379   8.722
   47MYC    H49 6515   0.914   2.242   8.749
   47MYC    C28 6516   0.769   2.194   8.600
   47MYC    H50 6517   0.771   2.085   8.613
   47MYC    H51 6518   0.665   2.219   8.574
   47MYC    C29 6519   0.843   2.235   8.471
   47MYC    H52 6520   0.826   2.342   8.455
   47MYC    H53 6521   0.951   2.234   8.492
   47MYC    C30 6522   0.793   2.151   8.353
   47MYC    H54 6523   0.811   2.044   8.370
   47MYC    H55 6524   0.685   2.168   8.353
   47MYC    C31 6525   0.851   2.190   8.215
   47MYC    H56 6526   0.842   2.298   8.201
   47MYC    H57 6527   0.960   2.173   8.214
   47MYC    C32 6528   0.776   2.119   8.102
   47MYC    H58 6529   0.783   2.009   8.107
   47MYC    H59 6530   0.669   2.143   8.102
   47MYC    C33 6531   0.834   2.157   7.964
   47MYC    H60 6532   0.832   2.265   7.950
   47MYC    H61 6533   0.936   2.117   7.958
   47MYC    C34 6534   0.753   2.094   7.849
   47MYC    H62 6535   0.727   1.991   7.876
   47MYC    H63 6536   0.657   2.147   7.842
   47MYC    C35 6537   0.825   2.111   7.714
   47MYC    H64 6538   0.844   2.218   7.697
   47MYC    H65 6539   0.924   2.064   7.718
   47MYC    C36 6540   0.742   2.051   7.599
   47MYC    H66 6541   0.731   1.942   7.603
   47MYC    H67 6542   0.644   2.099   7.591
   47MYC    C37 6543   0.801   2.081   7.460
   47MYC    H68 6544   0.789   2.188   7.437
   47MYC    H69 6545   0.907   2.053   7.460
   47MYC    C38 6546   0.728   2.017   7.341
   47MYC    H70 6547   0.695   1.914   7.358
   47MYC    H71 6548   0.639   2.077   7.316
   47MYC    C39 6549   0.803   2.029   7.208
   47MYC    H72 6550   0.821   2.134   7.181
   47MYC    H73 6551   0.906   1.991   7.217
   47MYC    C40 6552   0.730   1.964   7.089
   47MYC    H74 6553   0.695   1.861   7.108
   47MYC    H75 6554   0.639   2.024   7.074
   47MYC    C41 6555   0.817   1.964   6.963
   47MYC    H76 6556   0.819   2.068   6.929
   47MYC    H77 6557   0.922   1.936   6.982
   47MYC    C42 6558   0.760   1.880   6.847
   47MYC    H78 6559   0.767   1.774   6.872
   47MYC    H79 6560   0.658   1.918   6.835
   47MYC    C43 6561   0.831   1.900   6.712
   47MYC    H80 6562   0.771   1.859   6.631
   47MYC    H81 6563   0.932   1.856   6.710
   47MYC    H82 6564   0.847   2.007   6.694
   48MYC   5H15 6565   1.881   2.512   6.618
   48MYC    C80 6566   1.923   2.449   6.698
   48MYC   3H15 6567   1.874   2.351   6.703
   48MYC   4H15 6568   2.027   2.432   6.668
   48MYC    C79 6569   1.908   2.519   6.834
   48MYC   1H15 6570   1.808   2.561   6.852
   48MYC   2H15 6571   1.980   2.602   6.837
   48MYC    C78 6572   1.924   2.424   6.954
   48MYC   9H14 6573   2.021   2.375   6.964
   48MYC   0H15 6574   1.845   2.348   6.947
   48MYC    C77 6575   1.914   2.509   7.081
   48MYC   7H14 6576   1.813   2.552   7.082
   48MYC   8H14 6577   1.979   2.597   7.075
   48MYC    C76 6578   1.953   2.444   7.215
   48MYC   5H14 6579   2.063   2.442   7.223
   48MYC   6H14 6580   1.919   2.340   7.210
   48MYC    C75 6581   1.882   2.521   7.328
   48MYC   3H14 6582   1.775   2.505   7.311
   48MYC   4H14 6583   1.903   2.628   7.327
   48MYC    C74 6584   1.922   2.465   7.465
   48MYC   1H14 6585   2.029   2.482   7.482
   48MYC   2H14 6586   1.907   2.356   7.465
   48MYC    C73 6587   1.845   2.517   7.588
   48MYC   9H13 6588   1.738   2.495   7.577
   48MYC   0H14 6589   1.837   2.626   7.578
   48MYC    C72 6590   1.898   2.469   7.724
   48MYC   7H13 6591   2.000   2.500   7.749
   48MYC   8H13 6592   1.903   2.360   7.732
   48MYC    C71 6593   1.812   2.518   7.843
   48MYC   5H13 6594   1.713   2.471   7.831
   48MYC   6H13 6595   1.795   2.626   7.842
   48MYC    C70 6596   1.857   2.481   7.985
   48MYC   3H13 6597   1.950   2.526   8.020
   48MYC   4H13 6598   1.873   2.373   7.978
   48MYC    C69 6599   1.753   2.497   8.097
   48MYC   1H13 6600   1.655   2.451   8.075
   48MYC   2H13 6601   1.738   2.605   8.111
   48MYC    C68 6602   1.812   2.450   8.230
   48MYC   9H12 6603   1.906   2.504   8.249
   48MYC   0H13 6604   1.831   2.342   8.220
   48MYC    C67 6605   1.738   2.484   8.361
   48MYC   7H12 6606   1.635   2.449   8.352
   48MYC   8H12 6607   1.737   2.593   8.361
   48MYC    C66 6608   1.806   2.429   8.488
   48MYC   5H12 6609   1.914   2.444   8.482
   48MYC   6H12 6610   1.795   2.320   8.490
   48MYC    C65 6611   1.742   2.494   8.612
   48MYC   3H12 6612   1.635   2.474   8.603
   48MYC   4H12 6613   1.753   2.603   8.613
   48MYC    C64 6614   1.800   2.433   8.740
   48MYC   1H12 6615   1.907   2.456   8.743
   48MYC   2H12 6616   1.782   2.324   8.737
   48MYC    C63 6617   1.717   2.471   8.863
   48MYC   9H11 6618   1.616   2.433   8.844
   48MYC   0H12 6619   1.706   2.580   8.866
   48MYC    C62 6620   1.768   2.403   8.991
   48MYC   7H11 6621   1.856   2.457   9.027
   48MYC   8H11 6622   1.802   2.299   8.979
   48MYC    C61 6623   1.660   2.398   9.101
   48MYC   5H11 6624   1.571   2.361   9.048
   48MYC   6H11 6625   1.621   2.496   9.133
   48MYC    C60 6626   1.688   2.302   9.215
   48MYC   4H11 6627   1.771   2.233   9.200
   48MYC    C58 6628   1.655   2.341   9.357
   48MYC   1H11 6629   1.601   2.434   9.372
   48MYC    C59 6630   1.573   2.236   9.286
   48MYC   2H11 6631   1.584   2.136   9.327
   48MYC   3H11 6632   1.472   2.248   9.248
   48MYC    C57 6633   1.770   2.311   9.452
   48MYC   9H10 6634   1.853   2.379   9.433
   48MYC   0H11 6635   1.807   2.211   9.424
   48MYC    C56 6636   1.724   2.300   9.599
   48MYC   7H10 6637   1.664   2.210   9.617
   48MYC   8H10 6638   1.657   2.383   9.625
   48MYC    C55 6639   1.843   2.291   9.696
   48MYC   5H10 6640   1.923   2.364   9.675
   48MYC   6H10 6641   1.890   2.192   9.690
   48MYC    C54 6642   1.797   2.306   9.842
   48MYC   3H10 6643   1.750   2.211   9.872
   48MYC   4H10 6644   1.713   2.374   9.860
   48MYC    C53 6645   1.918   2.353   9.923
   48MYC   1H10 6646   1.944   2.456   9.896
   48MYC   2H10 6647   1.997   2.281   9.898
   48MYC    C52 6648   1.896   2.347  10.075
   48MYC    H99 6649   1.885   2.245  10.112
   48MYC   0H10 6650   1.803   2.404  10.084
   48MYC    C51 6651   2.004   2.426  10.151
   48MYC    H97 6652   1.992   2.534  10.135
   48MYC    H98 6653   2.101   2.388  10.117
   48MYC    C50 6654   1.981   2.397  10.300
   48MYC    H95 6655   2.077   2.371  10.347
   48MYC    H96 6656   1.918   2.307  10.309
   48MYC    C49 6657   1.919   2.508  10.387
   48MYC    H93 6658   1.809   2.498  10.384
   48MYC    H94 6659   1.944   2.608  10.349
   48MYC    C48 6660   1.972   2.497  10.531
   48MYC    H91 6661   2.060   2.563  10.534
   48MYC    H92 6662   2.009   2.396  10.550
   48MYC    C47 6663   1.887   2.557  10.645
   48MYC    H89 6664   1.785   2.518  10.639
   48MYC    H90 6665   1.868   2.663  10.621
   48MYC    C46 6666   1.958   2.515  10.774
   48MYC    H87 6667   2.057   2.563  10.773
   48MYC    H88 6668   1.964   2.405  10.780
   48MYC    C45 6669   1.891   2.566  10.903
   48MYC    H85 6670   1.800   2.508  10.922
   48MYC    H86 6671   1.853   2.668  10.892
   48MYC    C44 6672   1.991   2.573  11.020
   48MYC    H83 6673   1.963   2.657  11.083
   48MYC    H84 6674   2.089   2.611  10.988
   48MYC    C18 6675   2.002   2.448  11.105
   48MYC    H31 6676   1.907   2.416  11.146
   48MYC    C17 6677   2.091   2.347  11.037
   48MYC    H30 6678   2.150   2.391  10.957
   48MYC    C19 6679   2.127   2.398  11.174
   48MYC    H32 6680   2.212   2.466  11.184
   48MYC    H33 6681   2.111   2.332  11.258
   48MYC    C16 6682   2.029   2.210  11.011
   48MYC    H28 6683   1.950   2.217  10.935
   48MYC    H29 6684   1.976   2.169  11.097
   48MYC    C15 6685   2.132   2.102  10.972
   48MYC    H26 6686   2.078   2.010  10.946
   48MYC    H27 6687   2.201   2.072  11.052
   48MYC    C14 6688   2.215   2.143  10.849
   48MYC    H24 6689   2.288   2.219  10.880
   48MYC    H25 6690   2.150   2.177  10.767
   48MYC    C13 6691   2.306   2.028  10.802
   48MYC    H22 6692   2.254   1.932  10.797
   48MYC    H23 6693   2.379   2.012  10.883
   48MYC    C12 6694   2.383   2.054  10.672
   48MYC    H20 6695   2.436   2.149  10.685
   48MYC    H21 6696   2.312   2.068  10.589
   48MYC    C11 6697   2.478   1.943  10.624
   48MYC    H18 6698   2.431   1.853  10.583
   48MYC    H19 6699   2.536   1.905  10.709
   48MYC    C10 6700   2.568   1.973  10.503
   48MYC    H16 6701   2.641   1.892  10.486
   48MYC    H17 6702   2.629   2.059  10.532
   48MYC     C9 6703   2.494   2.020  10.377
   48MYC    H14 6704   2.447   2.117  10.399
   48MYC    H15 6705   2.408   1.955  10.354
   48MYC     C8 6706   2.586   2.041  10.256
   48MYC    H12 6707   2.614   1.946  10.208
   48MYC    H13 6708   2.680   2.089  10.283
   48MYC     C7 6709   2.517   2.126  10.147
   48MYC    H10 6710   2.588   2.131  10.064
   48MYC    H11 6711   2.505   2.229  10.183
   48MYC     C6 6712   2.390   2.066  10.085
   48MYC     H8 6713   2.312   2.047  10.159
   48MYC     H9 6714   2.422   1.973  10.037
   48MYC     C5 6715   2.328   2.157   9.978
   48MYC     H6 6716   2.404   2.220   9.930
   48MYC     H7 6717   2.268   2.232  10.032
   48MYC     C4 6718   2.236   2.087   9.877
   48MYC     H4 6719   2.134   2.122   9.894
   48MYC     H5 6720   2.232   1.980   9.902
   48MYC     C2 6721   2.291   2.096   9.733
   48MYC     H2 6722   2.307   2.203   9.719
   48MYC     O3 6723   2.417   2.031   9.717
   48MYC     H3 6724   2.400   1.937   9.734
   48MYC     C1 6725   2.199   2.056   9.617
   48MYC     H1 6726   2.106   2.111   9.634
   48MYC    C81 6727   2.163   1.907   9.615
   48MYC    O82 6728   2.198   1.826   9.531
   48MYC    O83 6729   2.087   1.866   9.718
   48MYC   6H15 6730   2.057   1.774   9.707
   48MYC    C20 6731   2.250   2.110   9.482
   48MYC    H34 6732   2.301   2.206   9.497
   48MYC    H35 6733   2.321   2.036   9.445
   48MYC    C21 6734   2.141   2.116   9.374
   48MYC    H36 6735   2.094   2.017   9.375
   48MYC    H37 6736   2.064   2.191   9.399
   48MYC    C22 6737   2.194   2.145   9.233
   48MYC    H38 6738   2.260   2.233   9.232
   48MYC    H39 6739   2.254   2.062   9.192
   48MYC    C23 6740   2.085   2.160   9.126
   48MYC    H40 6741   2.029   2.066   9.132
   48MYC    H41 6742   2.004   2.232   9.143
   48MYC    C24 6743   2.140   2.169   8.982
   48MYC    H42 6744   2.187   2.269   8.980
   48MYC    H43 6745   2.215   2.089   8.974
   48MYC    C25 6746   2.045   2.175   8.862
   48MYC    H44 6747   1.949   2.129   8.889
   48MYC    H45 6748   2.028   2.282   8.846
   48MYC    C26 6749   2.113   2.113   8.739
   48MYC    H46 6750   2.221   2.113   8.756
   48MYC    H47 6751   2.085   2.007   8.729
   48MYC    C27 6752   2.085   2.186   8.606
   48MYC    H48 6753   1.979   2.183   8.581
   48MYC    H49 6754   2.116   2.291   8.606
   48MYC    C28 6755   2.154   2.114   8.489
   48MYC    H50 6756   2.253   2.077   8.518
   48MYC    H51 6757   2.097   2.022   8.472
   48MYC    C29 6758   2.166   2.196   8.359
   48MYC    H52 6759   2.065   2.215   8.323
   48MYC    H53 6760   2.219   2.291   8.378
   48MYC    C30 6761   2.233   2.119   8.244
   48MYC    H54 6762   2.341   2.110   8.261
   48MYC    H55 6763   2.188   2.019   8.234
   48MYC    C31 6764   2.209   2.179   8.104
   48MYC    H56 6765   2.107   2.155   8.071
   48MYC    H57 6766   2.222   2.288   8.105
   48MYC    C32 6767   2.297   2.122   7.991
   48MYC    H58 6768   2.393   2.175   7.997
   48MYC    H59 6769   2.303   2.014   8.011
   48MYC    C33 6770   2.236   2.148   7.852
   48MYC    H60 6771   2.129   2.122   7.853
   48MYC    H61 6772   2.238   2.257   7.841
   48MYC    C34 6773   2.312   2.090   7.732
   48MYC    H62 6774   2.420   2.102   7.747
   48MYC    H63 6775   2.295   1.982   7.726
   48MYC    C35 6776   2.279   2.165   7.601
   48MYC    H64 6777   2.176   2.144   7.573
   48MYC    H65 6778   2.286   2.270   7.629
   48MYC    C36 6779   2.364   2.131   7.478
   48MYC    H66 6780   2.459   2.184   7.491
   48MYC    H67 6781   2.392   2.025   7.473
   48MYC    C37 6782   2.286   2.173   7.352
   48MYC    H68 6783   2.191   2.119   7.345
   48MYC    H69 6784   2.252   2.277   7.356
   48MYC    C38 6785   2.367   2.136   7.227
   48MYC    H70 6786   2.469   2.173   7.245
   48MYC    H71 6787   2.372   2.027   7.218
   48MYC    C39 6788   2.308   2.203   7.101
   48MYC    H72 6789   2.208   2.162   7.084
   48MYC    H73 6790   2.298   2.310   7.123
   48MYC    C40 6791   2.392   2.179   6.974
   48MYC    H74 6792   2.493   2.222   6.975
   48MYC    H75 6793   2.417   2.072   6.973
   48MYC    C41 6794   2.317   2.231   6.850
   48MYC    H76 6795   2.218   2.186   6.831
   48MYC    H77 6796   2.290   2.334   6.876
   48MYC    C42 6797   2.405   2.220   6.725
   48MYC    H78 6798   2.512   2.229   6.750
   48MYC    H79 6799   2.405   2.118   6.684
   48MYC    C43 6800   2.366   2.315   6.611
   48MYC    H80 6801   2.414   2.279   6.519
   48MYC    H81 6802   2.391   2.419   6.635
   48MYC    H82 6803   2.258   2.308   6.590
   49MYC   5H15 6804   2.659   2.472   6.617
   49MYC    C80 6805   2.739   2.495   6.689
   49MYC   3H15 6806   2.837   2.475   6.645
   49MYC   4H15 6807   2.721   2.602   6.703
   49MYC    C79 6808   2.706   2.432   6.826
   49MYC   1H15 6809   2.735   2.327   6.844
   49MYC   2H15 6810   2.597   2.432   6.832
   49MYC    C78 6811   2.757   2.514   6.946
   49MYC   9H14 6812   2.729   2.619   6.935
   49MYC   0H15 6813   2.866   2.505   6.945
   49MYC    C77 6814   2.703   2.448   7.074
   49MYC   7H14 6815   2.740   2.346   7.084
   49MYC   8H14 6816   2.594   2.441   7.066
   49MYC    C76 6817   2.729   2.526   7.204
   49MYC   5H14 6818   2.707   2.631   7.183
   49MYC   6H14 6819   2.835   2.515   7.230
   49MYC    C75 6820   2.635   2.474   7.314
   49MYC   3H14 6821   2.655   2.367   7.323
   49MYC   4H14 6822   2.530   2.483   7.281
   49MYC    C74 6823   2.667   2.536   7.451
   49MYC   1H14 6824   2.623   2.636   7.459
   49MYC   2H14 6825   2.775   2.549   7.469
   49MYC    C73 6826   2.611   2.456   7.570
   49MYC   9H13 6827   2.650   2.353   7.573
   49MYC   0H14 6828   2.504   2.434   7.557
   49MYC    C72 6829   2.633   2.532   7.701
   49MYC   7H13 6830   2.587   2.632   7.702
   49MYC   8H13 6831   2.739   2.557   7.708
   49MYC    C71 6832   2.585   2.454   7.825
   49MYC   5H13 6833   2.646   2.364   7.842
   49MYC   6H13 6834   2.487   2.409   7.804
   49MYC    C70 6835   2.565   2.544   7.947
   49MYC   3H13 6836   2.479   2.611   7.933
   49MYC   4H13 6837   2.653   2.607   7.969
   49MYC    C69 6838   2.533   2.474   8.080
   49MYC   1H13 6839   2.617   2.406   8.099
   49MYC   2H13 6840   2.443   2.412   8.073
   49MYC    C68 6841   2.517   2.570   8.199
   49MYC   9H12 6842   2.424   2.628   8.184
   49MYC   0H13 6843   2.594   2.648   8.202
   49MYC    C67 6844   2.521   2.497   8.334
   49MYC   7H12 6845   2.601   2.422   8.333
   49MYC   8H12 6846   2.422   2.454   8.351
   49MYC    C66 6847   2.551   2.589   8.453
   49MYC   5H12 6848   2.480   2.673   8.450
   49MYC   6H12 6849   2.651   2.631   8.437
   49MYC    C65 6850   2.549   2.510   8.585
   49MYC   3H12 6851   2.646   2.459   8.592
   49MYC   4H12 6852   2.467   2.436   8.578
   49MYC    C64 6853   2.506   2.600   8.702
   49MYC   1H12 6854   2.406   2.641   8.681
   49MYC   2H12 6855   2.570   2.689   8.706
   49MYC    C63 6856   2.496   2.528   8.837
   49MYC   9H11 6857   2.584   2.465   8.855
   49MYC   0H12 6858   2.414   2.454   8.834
   49MYC    C62 6859   2.477   2.617   8.960
   49MYC   7H11 6860   2.418   2.707   8.940
   49MYC   8H11 6861   2.572   2.660   8.995
   49MYC    C61 6862   2.430   2.531   9.079
   49MYC   5H11 6863   2.499   2.446   9.089
   49MYC   6H11 6864   2.330   2.489   9.062
   49MYC    C60 6865   2.435   2.608   9.210
   49MYC   4H11 6866   2.392   2.706   9.189
   49MYC    C58 6867   2.430   2.536   9.342
   49MYC   1H11 6868   2.432   2.427   9.336
   49MYC    C59 6869   2.557   2.603   9.299
   49MYC   2H11 6870   2.588   2.693   9.352
   49MYC   3H11 6871   2.640   2.542   9.265
   49MYC    C57 6872   2.352   2.598   9.458
   49MYC   9H10 6873   2.262   2.537   9.473
   49MYC   0H11 6874   2.318   2.700   9.440
   49MYC    C56 6875   2.431   2.609   9.589
   49MYC   7H10 6876   2.486   2.704   9.584
   49MYC   8H10 6877   2.510   2.533   9.598
   49MYC    C55 6878   2.337   2.609   9.710
   49MYC   5H10 6879   2.257   2.535   9.695
   49MYC   6H10 6880   2.277   2.701   9.704
   49MYC    C54 6881   2.418   2.597   9.840
   49MYC   3H10 6882   2.471   2.692   9.858
   49MYC   4H10 6883   2.483   2.509   9.832
   49MYC    C53 6884   2.322   2.565   9.956
   49MYC   1H10 6885   2.258   2.478   9.940
   49MYC   2H10 6886   2.256   2.651   9.974
   49MYC    C52 6887   2.411   2.547  10.080
   49MYC    H99 6888   2.504   2.606  10.078
   49MYC   0H10 6889   2.447   2.444  10.087
   49MYC    C51 6890   2.345   2.583  10.214
   49MYC    H97 6891   2.258   2.518  10.229
   49MYC    H98 6892   2.313   2.688  10.205
   49MYC    C50 6893   2.448   2.563  10.326
   49MYC    H95 6894   2.531   2.635  10.318
   49MYC    H96 6895   2.505   2.470  10.313
   49MYC    C49 6896   2.392   2.563  10.469
   49MYC    H93 6897   2.302   2.501  10.468
   49MYC    H94 6898   2.346   2.658  10.498
   49MYC    C48 6899   2.486   2.516  10.582
   49MYC    H91 6900   2.580   2.569  10.565
   49MYC    H92 6901   2.507   2.409  10.567
   49MYC    C47 6902   2.433   2.549  10.723
   49MYC    H89 6903   2.328   2.518  10.725
   49MYC    H90 6904   2.431   2.658  10.735
   49MYC    C46 6905   2.508   2.475  10.835
   49MYC    H87 6906   2.614   2.476  10.806
   49MYC    H88 6907   2.473   2.372  10.841
   49MYC    C45 6908   2.471   2.535  10.971
   49MYC    H85 6909   2.369   2.505  11.000
   49MYC    H86 6910   2.458   2.644  10.966
   49MYC    C44 6911   2.569   2.498  11.084
   49MYC    H83 6912   2.554   2.576  11.160
   49MYC    H84 6913   2.671   2.508  11.044
   49MYC    C18 6914   2.553   2.363  11.151
   49MYC    H31 6915   2.453   2.322  11.161
   49MYC    C17 6916   2.648   2.249  11.124
   49MYC    H30 6917   2.722   2.275  11.049
   49MYC    C19 6918   2.648   2.317  11.259
   49MYC    H32 6919   2.734   2.378  11.287
   49MYC    H33 6920   2.613   2.254  11.340
   49MYC    C16 6921   2.593   2.108  11.115
   49MYC    H28 6922   2.519   2.108  11.033
   49MYC    H29 6923   2.541   2.061  11.199
   49MYC    C15 6924   2.697   2.001  11.078
   49MYC    H26 6925   2.660   1.898  11.073
   49MYC    H27 6926   2.781   2.006  11.149
   49MYC    C14 6927   2.761   2.028  10.940
   49MYC    H24 6928   2.837   2.106  10.954
   49MYC    H25 6929   2.682   2.063  10.872
   49MYC    C13 6930   2.817   1.901  10.875
   49MYC    H22 6931   2.732   1.834  10.856
   49MYC    H23 6932   2.877   1.853  10.953
   49MYC    C12 6933   2.890   1.925  10.742
   49MYC    H20 6934   2.978   1.987  10.766
   49MYC    H21 6935   2.831   1.989  10.675
   49MYC    C11 6936   2.928   1.795  10.670
   49MYC    H18 6937   2.836   1.753  10.626
   49MYC    H19 6938   2.967   1.717  10.736
   49MYC    C10 6939   3.024   1.826  10.554
   49MYC    H16 6940   3.117   1.768  10.557
   49MYC    H17 6941   3.062   1.929  10.551
   49MYC     C9 6942   2.973   1.797  10.412
   49MYC    H14 6943   2.866   1.819  10.399
   49MYC    H15 6944   2.975   1.688  10.399
   49MYC     C8 6945   3.045   1.865  10.294
   49MYC    H12 6946   3.147   1.828  10.283
   49MYC    H13 6947   3.065   1.968  10.326
   49MYC     C7 6948   2.966   1.851  10.163
   49MYC    H10 6949   2.858   1.849  10.180
   49MYC    H11 6950   2.997   1.754  10.123
   49MYC     C6 6951   3.002   1.959  10.059
   49MYC     H8 6952   3.106   1.960  10.025
   49MYC     H9 6953   2.984   2.058  10.104
   49MYC     C5 6954   2.910   1.958   9.936
   49MYC     H6 6955   2.903   2.058   9.892
   49MYC     H7 6956   2.810   1.928   9.970
   49MYC     C4 6957   2.966   1.860   9.832
   49MYC     H4 6958   2.892   1.781   9.812
   49MYC     H5 6959   3.054   1.809   9.874
   49MYC     C2 6960   3.003   1.925   9.698
   49MYC     H2 6961   2.915   1.981   9.662
   49MYC     O3 6962   3.106   2.018   9.729
   49MYC     H3 6963   3.185   1.998   9.676
   49MYC     C1 6964   3.046   1.833   9.583
   49MYC     H1 6965   2.961   1.768   9.557
   49MYC    C81 6966   3.155   1.740   9.633
   49MYC    O82 6967   3.234   1.751   9.725
   49MYC    O83 6968   3.169   1.638   9.546
   49MYC   6H15 6969   3.249   1.595   9.580
   49MYC    C20 6970   3.082   1.912   9.456
   49MYC    H34 6971   3.056   2.018   9.469
   49MYC    H35 6972   3.191   1.913   9.446
   49MYC    C21 6973   3.021   1.862   9.323
   49MYC    H36 6974   3.035   1.754   9.310
   49MYC    H37 6975   2.912   1.873   9.322
   49MYC    C22 6976   3.079   1.946   9.208
   49MYC    H38 6977   3.073   2.053   9.233
   49MYC    H39 6978   3.187   1.932   9.202
   49MYC    C23 6979   3.000   1.919   9.078
   49MYC    H40 6980   3.015   1.813   9.058
   49MYC    H41 6981   2.896   1.944   9.103
   49MYC    C24 6982   3.052   1.996   8.956
   49MYC    H42 6983   3.056   2.104   8.977
   49MYC    H43 6984   3.158   1.973   8.940
   49MYC    C25 6985   2.967   1.973   8.830
   49MYC    H44 6986   2.951   1.865   8.821
   49MYC    H45 6987   2.869   2.016   8.855
   49MYC    C26 6988   3.022   2.037   8.701
   49MYC    H46 6989   3.004   2.144   8.686
   49MYC    H47 6990   3.131   2.031   8.693
   49MYC    C27 6991   2.954   1.974   8.578
   49MYC    H48 6992   2.970   1.865   8.578
   49MYC    H49 6993   2.846   1.988   8.583
   49MYC    C28 6994   2.996   2.040   8.445
   49MYC    H50 6995   2.956   2.142   8.446
   49MYC    H51 6996   3.106   2.043   8.437
   49MYC    C29 6997   2.943   1.969   8.320
   49MYC    H52 6998   2.978   1.866   8.310
   49MYC    H53 6999   2.834   1.954   8.329
   49MYC    C30 7000   2.965   2.037   8.184
   49MYC    H54 7001   2.934   2.142   8.195
   49MYC    H55 7002   3.072   2.032   8.160
   49MYC    C31 7003   2.894   1.965   8.068
   49MYC    H56 7004   2.915   1.857   8.074
   49MYC    H57 7005   2.786   1.972   8.086
   49MYC    C32 7006   2.929   2.020   7.929
   49MYC    H58 7007   2.927   2.129   7.943
   49MYC    H59 7008   3.029   1.988   7.897
   49MYC    C33 7009   2.813   1.986   7.833
   49MYC    H60 7010   2.798   1.878   7.844
   49MYC    H61 7011   2.718   2.034   7.859
   49MYC    C34 7012   2.846   2.028   7.689
   49MYC    H62 7013   2.871   2.134   7.694
   49MYC    H63 7014   2.940   1.980   7.659
   49MYC    C35 7015   2.737   2.001   7.583
   49MYC    H64 7016   2.689   1.904   7.601
   49MYC    H65 7017   2.661   2.080   7.595
   49MYC    C36 7018   2.793   1.996   7.441
   49MYC    H66 7019   2.873   2.070   7.425
   49MYC    H67 7020   2.841   1.897   7.433
   49MYC    C37 7021   2.692   1.999   7.325
   49MYC    H68 7022   2.599   1.952   7.360
   49MYC    H69 7023   2.674   2.103   7.297
   49MYC    C38 7024   2.743   1.924   7.201
   49MYC    H70 7025   2.841   1.963   7.172
   49MYC    H71 7026   2.752   1.817   7.225
   49MYC    C39 7027   2.656   1.944   7.076
   49MYC    H72 7028   2.552   1.910   7.090
   49MYC    H73 7029   2.650   2.052   7.060
   49MYC    C40 7030   2.719   1.884   6.949
   49MYC    H74 7031   2.822   1.918   6.931
   49MYC    H75 7032   2.720   1.775   6.945
   49MYC    C41 7033   2.641   1.919   6.821
   49MYC    H76 7034   2.537   1.891   6.841
   49MYC    H77 7035   2.647   2.026   6.798
   49MYC    C42 7036   2.678   1.833   6.699
   49MYC    H78 7037   2.779   1.859   6.664
   49MYC    H79 7038   2.675   1.728   6.729
   49MYC    C43 7039   2.583   1.850   6.579
   49MYC    H80 7040   2.612   1.778   6.501
   49MYC    H81 7041   2.582   1.951   6.536
   49MYC    H82 7042   2.482   1.823   6.611
   50MYC   5H15 7043   3.783   2.103   6.748
   50MYC    C80 7044   3.735   2.170   6.820
   50MYC   3H15 7045   3.761   2.275   6.800
   50MYC   4H15 7046   3.627   2.159   6.808
   50MYC    C79 7047   3.793   2.146   6.961
   50MYC   1H15 7048   3.887   2.201   6.970
   50MYC   2H15 7049   3.817   2.040   6.977
   50MYC    C78 7050   3.692   2.197   7.064
   50MYC   9H14 7051   3.601   2.135   7.063
   50MYC   0H15 7052   3.661   2.297   7.030
   50MYC    C77 7053   3.758   2.199   7.203
   50MYC   7H14 7054   3.857   2.244   7.199
   50MYC   8H14 7055   3.774   2.095   7.234
   50MYC    C76 7056   3.675   2.274   7.308
   50MYC   5H14 7057   3.569   2.280   7.282
   50MYC   6H14 7058   3.701   2.381   7.304
   50MYC    C75 7059   3.693   2.218   7.450
   50MYC   3H14 7060   3.800   2.205   7.468
   50MYC   4H14 7061   3.647   2.119   7.456
   50MYC    C74 7062   3.628   2.311   7.555
   50MYC   1H14 7063   3.534   2.352   7.516
   50MYC   2H14 7064   3.688   2.402   7.565
   50MYC    C73 7065   3.606   2.240   7.689
   50MYC   9H13 7066   3.700   2.186   7.706
   50MYC   0H14 7067   3.531   2.160   7.683
   50MYC    C72 7068   3.578   2.331   7.810
   50MYC   7H13 7069   3.475   2.368   7.804
   50MYC   8H13 7070   3.645   2.418   7.814
   50MYC    C71 7071   3.599   2.253   7.941
   50MYC   5H13 7072   3.705   2.223   7.946
   50MYC   6H13 7073   3.547   2.156   7.938
   50MYC    C70 7074   3.562   2.334   8.066
   50MYC   3H13 7075   3.460   2.370   8.053
   50MYC   4H13 7076   3.635   2.413   8.089
   50MYC    C69 7077   3.544   2.238   8.186
   50MYC   1H13 7078   3.633   2.177   8.200
   50MYC   2H13 7079   3.469   2.162   8.161
   50MYC    C68 7080   3.509   2.317   8.314
   50MYC   9H12 7081   3.403   2.342   8.316
   50MYC   0H13 7082   3.563   2.412   8.316
   50MYC    C67 7083   3.544   2.229   8.435
   50MYC   7H12 7084   3.640   2.177   8.426
   50MYC   8H12 7085   3.461   2.158   8.444
   50MYC    C66 7086   3.543   2.301   8.571
   50MYC   5H12 7087   3.459   2.372   8.567
   50MYC   6H12 7088   3.631   2.365   8.583
   50MYC    C65 7089   3.535   2.198   8.685
   50MYC   3H12 7090   3.629   2.141   8.685
   50MYC   4H12 7091   3.453   2.129   8.664
   50MYC    C64 7092   3.513   2.262   8.823
   50MYC   1H12 7093   3.428   2.332   8.832
   50MYC   2H12 7094   3.596   2.329   8.847
   50MYC    C63 7095   3.504   2.161   8.938
   50MYC   9H11 7096   3.596   2.101   8.934
   50MYC   0H12 7097   3.417   2.097   8.916
   50MYC    C62 7098   3.472   2.225   9.074
   50MYC   7H11 7099   3.375   2.276   9.063
   50MYC   8H11 7100   3.545   2.302   9.100
   50MYC    C61 7101   3.471   2.117   9.184
   50MYC   5H11 7102   3.569   2.068   9.171
   50MYC   6H11 7103   3.390   2.044   9.173
   50MYC    C60 7104   3.456   2.161   9.328
   50MYC   4H11 7105   3.353   2.178   9.356
   50MYC    C58 7106   3.543   2.128   9.447
   50MYC   1H11 7107   3.630   2.065   9.432
   50MYC    C59 7108   3.552   2.264   9.383
   50MYC   2H11 7109   3.508   2.349   9.434
   50MYC   3H11 7110   3.640   2.298   9.329
   50MYC    C57 7111   3.460   2.096   9.571
   50MYC   9H10 7112   3.415   1.996   9.564
   50MYC   0H11 7113   3.370   2.157   9.585
   50MYC    C56 7114   3.552   2.108   9.694
   50MYC   7H10 7115   3.594   2.209   9.702
   50MYC   8H10 7116   3.644   2.050   9.680
   50MYC    C55 7117   3.483   2.077   9.828
   50MYC   5H10 7118   3.443   1.975   9.824
   50MYC   6H10 7119   3.392   2.136   9.840
   50MYC    C54 7120   3.581   2.103   9.943
   50MYC   3H10 7121   3.641   2.193   9.921
   50MYC   4H10 7122   3.649   2.018   9.959
   50MYC    C53 7123   3.510   2.128  10.077
   50MYC   1H10 7124   3.455   2.034  10.091
   50MYC   2H10 7125   3.438   2.211  10.074
   50MYC    C52 7126   3.600   2.144  10.201
   50MYC    H99 7127   3.667   2.228  10.180
   50MYC   0H10 7128   3.659   2.052  10.213
   50MYC    C51 7129   3.519   2.167  10.331
   50MYC    H97 7130   3.456   2.080  10.351
   50MYC    H98 7131   3.459   2.254  10.302
   50MYC    C50 7132   3.604   2.200  10.455
   50MYC    H95 7133   3.640   2.300  10.432
   50MYC    H96 7134   3.688   2.130  10.459
   50MYC    C49 7135   3.528   2.211  10.588
   50MYC    H93 7136   3.506   2.108  10.620
   50MYC    H94 7137   3.434   2.267  10.576
   50MYC    C48 7138   3.613   2.285  10.693
   50MYC    H91 7139   3.649   2.380  10.651
   50MYC    H92 7140   3.704   2.224  10.704
   50MYC    C47 7141   3.548   2.302  10.831
   50MYC    H89 7142   3.573   2.214  10.891
   50MYC    H90 7143   3.439   2.298  10.820
   50MYC    C46 7144   3.585   2.429  10.909
   50MYC    H87 7145   3.571   2.518  10.845
   50MYC    H88 7146   3.691   2.425  10.937
   50MYC    C45 7147   3.501   2.445  11.036
   50MYC    H85 7148   3.538   2.367  11.104
   50MYC    H86 7149   3.397   2.419  11.011
   50MYC    C44 7150   3.493   2.584  11.100
   50MYC    H83 7151   3.403   2.594  11.163
   50MYC    H84 7152   3.480   2.662  11.024
   50MYC    C18 7153   3.617   2.629  11.176
   50MYC    H31 7154   3.711   2.576  11.156
   50MYC    C17 7155   3.650   2.768  11.222
   50MYC    H30 7156   3.574   2.847  11.217
   50MYC    C19 7157   3.624   2.660  11.323
   50MYC    H32 7158   3.536   2.678  11.384
   50MYC    H33 7159   3.703   2.608  11.376
   50MYC    C16 7160   3.787   2.831  11.201
   50MYC    H28 7161   3.863   2.771  11.251
   50MYC    H29 7162   3.789   2.925  11.259
   50MYC    C15 7163   3.824   2.846  11.052
   50MYC    H26 7164   3.923   2.895  11.052
   50MYC    H27 7165   3.756   2.917  11.004
   50MYC    C14 7166   3.842   2.720  10.966
   50MYC    H24 7167   3.742   2.690  10.934
   50MYC    H25 7168   3.884   2.644  11.033
   50MYC    C13 7169   3.919   2.725  10.833
   50MYC    H22 7170   4.016   2.775  10.842
   50MYC    H23 7171   3.853   2.783  10.767
   50MYC    C12 7172   3.947   2.587  10.769
   50MYC    H20 7173   3.851   2.539  10.747
   50MYC    H21 7174   4.001   2.520  10.837
   50MYC    C11 7175   4.042   2.602  10.649
   50MYC    H18 7176   4.071   2.508  10.600
   50MYC    H19 7177   4.134   2.648  10.686
   50MYC    C10 7178   4.002   2.708  10.545
   50MYC    H16 7179   4.088   2.724  10.479
   50MYC    H17 7180   3.993   2.808  10.589
   50MYC     C9 7181   3.877   2.678  10.461
   50MYC    H14 7182   3.847   2.776  10.422
   50MYC    H15 7183   3.796   2.641  10.524
   50MYC     C8 7184   3.887   2.574  10.348
   50MYC    H12 7185   3.799   2.570  10.283
   50MYC    H13 7186   3.895   2.469  10.380
   50MYC     C7 7187   4.007   2.602  10.256
   50MYC    H10 7188   4.092   2.561  10.312
   50MYC    H11 7189   4.030   2.708  10.241
   50MYC     C6 7190   4.013   2.518  10.127
   50MYC     H8 7191   3.998   2.412  10.151
   50MYC     H9 7192   4.111   2.521  10.077
   50MYC     C5 7193   3.906   2.555  10.023
   50MYC     H6 7194   3.925   2.661  10.000
   50MYC     H7 7195   3.804   2.535  10.057
   50MYC     C4 7196   3.920   2.474   9.893
   50MYC     H4 7197   3.942   2.369   9.915
   50MYC     H5 7198   4.006   2.514   9.837
   50MYC     C2 7199   3.804   2.489   9.793
   50MYC     H2 7200   3.826   2.433   9.701
   50MYC     O3 7201   3.685   2.430   9.844
   50MYC     H3 7202   3.620   2.502   9.848
   50MYC     C1 7203   3.786   2.632   9.740
   50MYC     H1 7204   3.888   2.672   9.732
   50MYC    C81 7205   3.719   2.721   9.844
   50MYC    O82 7206   3.768   2.822   9.892
   50MYC    O83 7207   3.588   2.697   9.866
   50MYC   6H15 7208   3.549   2.763   9.925
   50MYC    C20 7209   3.703   2.643   9.610
   50MYC    H34 7210   3.616   2.577   9.604
   50MYC    H35 7211   3.653   2.739   9.595
   50MYC    C21 7212   3.790   2.605   9.489
   50MYC    H36 7213   3.892   2.645   9.486
   50MYC    H37 7214   3.803   2.496   9.492
   50MYC    C22 7215   3.724   2.644   9.355
   50MYC    H38 7216   3.621   2.607   9.362
   50MYC    H39 7217   3.718   2.752   9.342
   50MYC    C23 7218   3.793   2.584   9.231
   50MYC    H40 7219   3.901   2.601   9.236
   50MYC    H41 7220   3.765   2.478   9.233
   50MYC    C24 7221   3.741   2.641   9.098
   50MYC    H42 7222   3.632   2.641   9.087
   50MYC    H43 7223   3.767   2.747   9.108
   50MYC    C25 7224   3.811   2.577   8.977
   50MYC    H44 7225   3.918   2.560   8.995
   50MYC    H45 7226   3.764   2.480   8.959
   50MYC    C26 7227   3.782   2.647   8.844
   50MYC    H46 7228   3.673   2.651   8.826
   50MYC    H47 7229   3.814   2.752   8.851
   50MYC    C27 7230   3.862   2.581   8.731
   50MYC    H48 7231   3.961   2.540   8.754
   50MYC    H49 7232   3.799   2.498   8.698
   50MYC    C28 7233   3.862   2.666   8.602
   50MYC    H50 7234   3.756   2.687   8.585
   50MYC    H51 7235   3.907   2.766   8.610
   50MYC    C29 7236   3.906   2.596   8.472
   50MYC    H52 7237   4.013   2.571   8.482
   50MYC    H53 7238   3.844   2.506   8.477
   50MYC    C30 7239   3.877   2.676   8.344
   50MYC    H54 7240   3.769   2.694   8.351
   50MYC    H55 7241   3.941   2.765   8.341
   50MYC    C31 7242   3.899   2.592   8.217
   50MYC    H56 7243   3.991   2.532   8.223
   50MYC    H57 7244   3.820   2.516   8.215
   50MYC    C32 7245   3.873   2.665   8.085
   50MYC    H58 7246   3.768   2.694   8.074
   50MYC    H59 7247   3.920   2.763   8.080
   50MYC    C33 7248   3.914   2.584   7.960
   50MYC    H60 7249   4.018   2.554   7.976
   50MYC    H61 7250   3.866   2.485   7.969
   50MYC    C34 7251   3.877   2.652   7.827
   50MYC    H62 7252   3.768   2.668   7.829
   50MYC    H63 7253   3.922   2.751   7.837
   50MYC    C35 7254   3.928   2.583   7.700
   50MYC    H64 7255   4.036   2.586   7.718
   50MYC    H65 7256   3.895   2.478   7.690
   50MYC    C36 7257   3.912   2.659   7.567
   50MYC    H66 7258   3.807   2.684   7.549
   50MYC    H67 7259   3.969   2.753   7.577
   50MYC    C37 7260   3.961   2.579   7.446
   50MYC    H68 7261   4.068   2.558   7.447
   50MYC    H69 7262   3.901   2.486   7.442
   50MYC    C38 7263   3.923   2.659   7.320
   50MYC    H70 7264   3.814   2.672   7.318
   50MYC    H71 7265   3.974   2.756   7.324
   50MYC    C39 7266   3.961   2.603   7.183
   50MYC    H72 7267   4.069   2.591   7.170
   50MYC    H73 7268   3.918   2.502   7.174
   50MYC    C40 7269   3.902   2.688   7.068
   50MYC    H74 7270   3.793   2.684   7.071
   50MYC    H75 7271   3.919   2.796   7.079
   50MYC    C41 7272   3.944   2.631   6.932
   50MYC    H76 7273   4.054   2.625   6.936
   50MYC    H77 7274   3.919   2.524   6.926
   50MYC    C42 7275   3.879   2.704   6.813
   50MYC    H78 7276   3.770   2.705   6.825
   50MYC    H79 7277   3.916   2.807   6.810
   50MYC    C43 7278   3.912   2.650   6.673
   50MYC    H80 7279   3.852   2.701   6.596
   50MYC    H81 7280   3.893   2.543   6.661
   50MYC    H82 7281   4.017   2.664   6.645
   51MYC   5H15 7282   4.240   2.371   6.633
   51MYC    C80 7283   4.289   2.343   6.727
   51MYC   3H15 7284   4.366   2.266   6.712
   51MYC   4H15 7285   4.341   2.436   6.754
   51MYC    C79 7286   4.187   2.304   6.836
   51MYC   1H15 7287   4.132   2.219   6.794
   51MYC   2H15 7288   4.107   2.379   6.829
   51MYC    C78 7289   4.241   2.295   6.979
   51MYC   9H14 7290   4.277   2.396   7.002
   51MYC   0H15 7291   4.327   2.227   6.987
   51MYC    C77 7292   4.138   2.243   7.081
   51MYC   7H14 7293   4.111   2.140   7.055
   51MYC   8H14 7294   4.048   2.305   7.077
   51MYC    C76 7295   4.206   2.252   7.219
   51MYC   5H14 7296   4.254   2.350   7.230
   51MYC   6H14 7297   4.292   2.184   7.216
   51MYC    C75 7298   4.124   2.225   7.347
   51MYC   3H14 7299   4.080   2.125   7.338
   51MYC   4H14 7300   4.044   2.299   7.356
   51MYC    C74 7301   4.207   2.229   7.476
   51MYC   1H14 7302   4.258   2.325   7.483
   51MYC   2H14 7303   4.286   2.153   7.479
   51MYC    C73 7304   4.107   2.199   7.590
   51MYC   9H13 7305   4.043   2.113   7.566
   51MYC   0H14 7306   4.047   2.290   7.601
   51MYC    C72 7307   4.176   2.169   7.724
   51MYC   7H13 7308   4.243   2.251   7.749
   51MYC   8H13 7309   4.243   2.082   7.720
   51MYC    C71 7310   4.069   2.162   7.834
   51MYC   5H13 7311   4.009   2.071   7.817
   51MYC   6H13 7312   4.005   2.250   7.821
   51MYC    C70 7313   4.131   2.167   7.974
   51MYC   3H13 7314   4.204   2.248   7.971
   51MYC   4H13 7315   4.177   2.070   8.000
   51MYC    C69 7316   4.014   2.189   8.072
   51MYC   1H13 7317   3.939   2.111   8.052
   51MYC   2H13 7318   3.963   2.286   8.073
   51MYC    C68 7319   4.067   2.173   8.216
   51MYC   9H12 7320   4.156   2.236   8.227
   51MYC   0H13 7321   4.113   2.075   8.230
   51MYC    C67 7322   3.958   2.195   8.323
   51MYC   7H12 7323   3.878   2.122   8.306
   51MYC   8H12 7324   3.908   2.289   8.299
   51MYC    C66 7325   4.020   2.205   8.464
   51MYC   5H12 7326   4.064   2.305   8.477
   51MYC   6H12 7327   4.096   2.129   8.481
   51MYC    C65 7328   3.917   2.194   8.578
   51MYC   3H12 7329   3.862   2.100   8.581
   51MYC   4H12 7330   3.839   2.271   8.568
   51MYC    C64 7331   3.984   2.219   8.715
   51MYC   1H12 7332   4.014   2.324   8.722
   51MYC   2H12 7333   4.073   2.156   8.712
   51MYC    C63 7334   3.884   2.182   8.826
   51MYC   9H11 7335   3.824   2.093   8.808
   51MYC   0H12 7336   3.814   2.267   8.824
   51MYC    C62 7337   3.954   2.174   8.962
   51MYC   7H11 7338   4.009   2.268   8.974
   51MYC   8H11 7339   4.032   2.096   8.957
   51MYC    C61 7340   3.850   2.186   9.075
   51MYC   5H11 7341   3.784   2.100   9.059
   51MYC   6H11 7342   3.805   2.285   9.062
   51MYC    C60 7343   3.911   2.180   9.214
   51MYC   4H11 7344   3.842   2.206   9.294
   51MYC    C58 7345   4.016   2.076   9.244
   51MYC   1H11 7346   4.036   2.011   9.158
   51MYC    C59 7347   4.054   2.222   9.240
   51MYC   2H11 7348   4.060   2.283   9.330
   51MYC   3H11 7349   4.115   2.252   9.155
   51MYC    C57 7350   4.003   1.985   9.365
   51MYC   9H10 7351   4.082   1.909   9.357
   51MYC   0H11 7352   3.906   1.934   9.362
   51MYC    C56 7353   4.018   2.056   9.501
   51MYC   7H10 7354   3.953   2.144   9.502
   51MYC   8H10 7355   4.119   2.097   9.491
   51MYC    C55 7356   4.004   1.969   9.627
   51MYC   5H10 7357   4.086   1.896   9.629
   51MYC   6H10 7358   3.907   1.918   9.621
   51MYC    C54 7359   4.015   2.054   9.755
   51MYC   3H10 7360   3.944   2.138   9.752
   51MYC   4H10 7361   4.106   2.113   9.737
   51MYC    C53 7362   4.012   1.977   9.888
   51MYC   1H10 7363   4.070   1.884   9.877
   51MYC   2H10 7364   3.909   1.947   9.910
   51MYC    C52 7365   4.054   2.057  10.011
   51MYC    H99 7366   3.997   2.151  10.017
   51MYC   0H10 7367   4.155   2.096   9.990
   51MYC    C51 7368   4.059   1.979  10.144
   51MYC    H97 7369   4.136   1.902  10.136
   51MYC    H98 7370   3.959   1.934  10.149
   51MYC    C50 7371   4.090   2.068  10.266
   51MYC    H95 7372   4.038   2.164  10.264
   51MYC    H96 7373   4.195   2.096  10.273
   51MYC    C49 7374   4.044   1.994  10.392
   51MYC    H93 7375   4.067   1.888  10.376
   51MYC    H94 7376   3.934   1.999  10.393
   51MYC    C48 7377   4.102   2.076  10.509
   51MYC    H91 7378   4.050   2.172  10.508
   51MYC    H92 7379   4.211   2.089  10.504
   51MYC    C47 7380   4.083   2.008  10.646
   51MYC    H89 7381   4.165   1.935  10.645
   51MYC    H90 7382   3.988   1.953  10.651
   51MYC    C46 7383   4.091   2.111  10.759
   51MYC    H87 7384   4.067   2.213  10.725
   51MYC    H88 7385   4.195   2.120  10.793
   51MYC    C45 7386   3.987   2.083  10.869
   51MYC    H85 7387   3.991   1.977  10.895
   51MYC    H86 7388   3.887   2.104  10.831
   51MYC    C44 7389   4.025   2.158  10.998
   51MYC    H83 7390   3.935   2.174  11.060
   51MYC    H84 7391   4.045   2.262  10.971
   51MYC    C18 7392   4.137   2.102  11.084
   51MYC    H31 7393   4.216   2.059  11.023
   51MYC    C17 7394   4.173   2.178  11.210
   51MYC    H30 7395   4.104   2.250  11.252
   51MYC    C19 7396   4.105   2.043  11.220
   51MYC    H32 7397   3.999   2.037  11.241
   51MYC    H33 7398   4.163   1.954  11.238
   51MYC    C16 7399   4.321   2.186  11.246
   51MYC    H28 7400   4.367   2.087  11.231
   51MYC    H29 7401   4.329   2.197  11.354
   51MYC    C15 7402   4.396   2.305  11.185
   51MYC    H26 7403   4.503   2.290  11.204
   51MYC    H27 7404   4.362   2.398  11.232
   51MYC    C14 7405   4.372   2.324  11.035
   51MYC    H24 7406   4.269   2.362  11.031
   51MYC    H25 7407   4.369   2.229  10.981
   51MYC    C13 7408   4.465   2.424  10.963
   51MYC    H22 7409   4.566   2.390  10.990
   51MYC    H23 7410   4.459   2.527  11.000
   51MYC    C12 7411   4.441   2.419  10.812
   51MYC    H20 7412   4.342   2.459  10.785
   51MYC    H21 7413   4.448   2.313  10.785
   51MYC    C11 7414   4.546   2.495  10.728
   51MYC    H18 7415   4.646   2.452  10.736
   51MYC    H19 7416   4.554   2.600  10.759
   51MYC    C10 7417   4.502   2.493  10.581
   51MYC    H16 7418   4.566   2.560  10.522
   51MYC    H17 7419   4.404   2.541  10.584
   51MYC     C9 7420   4.505   2.358  10.507
   51MYC    H14 7421   4.458   2.279  10.567
   51MYC    H15 7422   4.611   2.334  10.488
   51MYC     C8 7423   4.420   2.361  10.379
   51MYC    H12 7424   4.402   2.465  10.349
   51MYC    H13 7425   4.322   2.314  10.392
   51MYC     C7 7426   4.491   2.290  10.262
   51MYC    H10 7427   4.518   2.186  10.285
   51MYC    H11 7428   4.587   2.339  10.242
   51MYC     C6 7429   4.404   2.294  10.136
   51MYC     H8 7430   4.359   2.391  10.112
   51MYC     H9 7431   4.323   2.220  10.140
   51MYC     C5 7432   4.478   2.253  10.007
   51MYC     H6 7433   4.398   2.210   9.946
   51MYC     H7 7434   4.546   2.171  10.031
   51MYC     C4 7435   4.540   2.374   9.935
   51MYC     H4 7436   4.647   2.358   9.919
   51MYC     H5 7437   4.535   2.463   9.999
   51MYC     C2 7438   4.486   2.409   9.795
   51MYC     H2 7439   4.499   2.322   9.730
   51MYC     O3 7440   4.349   2.443   9.816
   51MYC     H3 7441   4.342   2.526   9.766
   51MYC     C1 7442   4.560   2.526   9.729
   51MYC     H1 7443   4.662   2.487   9.715
   51MYC    C81 7444   4.560   2.652   9.815
   51MYC    O82 7445   4.645   2.684   9.896
   51MYC    O83 7446   4.450   2.728   9.796
   51MYC   6H15 7447   4.456   2.795   9.866
   51MYC    C20 7448   4.499   2.550   9.589
   51MYC    H34 7449   4.393   2.573   9.600
   51MYC    H35 7450   4.549   2.638   9.547
   51MYC    C21 7451   4.511   2.433   9.490
   51MYC    H36 7452   4.594   2.368   9.520
   51MYC    H37 7453   4.417   2.377   9.497
   51MYC    C22 7454   4.527   2.498   9.351
   51MYC    H38 7455   4.450   2.572   9.327
   51MYC    H39 7456   4.624   2.545   9.332
   51MYC    C23 7457   4.510   2.390   9.243
   51MYC    H40 7458   4.585   2.311   9.261
   51MYC    H41 7459   4.413   2.341   9.253
   51MYC    C24 7460   4.510   2.452   9.102
   51MYC    H42 7461   4.425   2.522   9.104
   51MYC    H43 7462   4.594   2.521   9.089
   51MYC    C25 7463   4.490   2.358   8.982
   51MYC    H44 7464   4.558   2.271   8.982
   51MYC    H45 7465   4.389   2.314   8.988
   51MYC    C26 7466   4.503   2.439   8.852
   51MYC    H46 7467   4.442   2.529   8.865
   51MYC    H47 7468   4.605   2.479   8.852
   51MYC    C27 7469   4.475   2.354   8.727
   51MYC    H48 7470   4.556   2.280   8.734
   51MYC    H49 7471   4.381   2.299   8.737
   51MYC    C28 7472   4.487   2.427   8.593
   51MYC    H50 7473   4.413   2.508   8.584
   51MYC    H51 7474   4.584   2.475   8.575
   51MYC    C29 7475   4.462   2.327   8.479
   51MYC    H52 7476   4.527   2.242   8.502
   51MYC    H53 7477   4.359   2.287   8.480
   51MYC    C30 7478   4.499   2.386   8.342
   51MYC    H54 7479   4.421   2.461   8.324
   51MYC    H55 7480   4.593   2.442   8.352
   51MYC    C31 7481   4.508   2.282   8.230
   51MYC    H56 7482   4.578   2.200   8.251
   51MYC    H57 7483   4.404   2.247   8.223
   51MYC    C32 7484   4.543   2.355   8.099
   51MYC    H58 7485   4.485   2.447   8.081
   51MYC    H59 7486   4.645   2.393   8.107
   51MYC    C33 7487   4.546   2.258   7.980
   51MYC    H60 7488   4.599   2.163   7.998
   51MYC    H61 7489   4.446   2.215   7.966
   51MYC    C34 7490   4.600   2.322   7.851
   51MYC    H62 7491   4.541   2.413   7.832
   51MYC    H63 7492   4.702   2.357   7.868
   51MYC    C35 7493   4.601   2.225   7.731
   51MYC    H64 7494   4.665   2.138   7.749
   51MYC    H65 7495   4.501   2.182   7.719
   51MYC    C36 7496   4.633   2.299   7.600
   51MYC    H66 7497   4.590   2.399   7.596
   51MYC    H67 7498   4.743   2.305   7.598
   51MYC    C37 7499   4.585   2.242   7.466
   51MYC    H68 7500   4.599   2.133   7.464
   51MYC    H69 7501   4.477   2.265   7.467
   51MYC    C38 7502   4.653   2.307   7.344
   51MYC    H70 7503   4.636   2.415   7.350
   51MYC    H71 7504   4.762   2.294   7.347
   51MYC    C39 7505   4.599   2.264   7.207
   51MYC    H72 7506   4.564   2.160   7.199
   51MYC    H73 7507   4.514   2.330   7.183
   51MYC    C40 7508   4.696   2.280   7.089
   51MYC    H74 7509   4.728   2.385   7.088
   51MYC    H75 7510   4.785   2.218   7.105
   51MYC    C41 7511   4.645   2.242   6.949
   51MYC    H76 7512   4.612   2.138   6.960
   51MYC    H77 7513   4.555   2.298   6.922
   51MYC    C42 7514   4.755   2.259   6.843
   51MYC    H78 7515   4.790   2.363   6.839
   51MYC    H79 7516   4.844   2.205   6.880
   51MYC    C43 7517   4.722   2.217   6.699
   51MYC    H80 7518   4.805   2.233   6.629
   51MYC    H81 7519   4.632   2.272   6.672
   51MYC    H82 7520   4.703   2.109   6.700
   52MYC   5H15 7521   5.036   2.425   6.707
   52MYC    C80 7522   5.109   2.371   6.769
   52MYC   3H15 7523   5.086   2.264   6.766
   52MYC   4H15 7524   5.211   2.381   6.729
   52MYC    C79 7525   5.102   2.428   6.912
   52MYC   1H15 7526   4.996   2.438   6.938
   52MYC   2H15 7527   5.169   2.514   6.926
   52MYC    C78 7528   5.157   2.332   7.018
   52MYC   9H14 7529   5.267   2.328   7.025
   52MYC   0H15 7530   5.131   2.230   6.988
   52MYC    C77 7531   5.088   2.350   7.155
   52MYC   7H14 7532   4.988   2.307   7.152
   52MYC   8H14 7533   5.078   2.457   7.175
   52MYC    C76 7534   5.162   2.279   7.269
   52MYC   5H14 7535   5.262   2.321   7.286
   52MYC   6H14 7536   5.189   2.179   7.232
   52MYC    C75 7537   5.080   2.281   7.399
   52MYC   3H14 7538   4.995   2.212   7.392
   52MYC   4H14 7539   5.031   2.378   7.414
   52MYC    C74 7540   5.154   2.248   7.530
   52MYC   1H14 7541   5.242   2.313   7.527
   52MYC   2H14 7542   5.199   2.148   7.522
   52MYC    C73 7543   5.079   2.279   7.661
   52MYC   9H13 7544   4.978   2.245   7.637
   52MYC   0H14 7545   5.080   2.387   7.682
   52MYC    C72 7546   5.151   2.204   7.774
   52MYC   7H13 7547   5.252   2.246   7.783
   52MYC   8H13 7548   5.170   2.097   7.760
   52MYC    C71 7549   5.082   2.231   7.909
   52MYC   5H13 7550   4.974   2.208   7.908
   52MYC   6H13 7551   5.082   2.341   7.912
   52MYC    C70 7552   5.152   2.173   8.033
   52MYC   3H13 7553   5.247   2.227   8.044
   52MYC   4H13 7554   5.181   2.068   8.025
   52MYC    C69 7555   5.058   2.186   8.154
   52MYC   1H13 7556   4.971   2.122   8.138
   52MYC   2H13 7557   5.022   2.287   8.177
   52MYC    C68 7558   5.130   2.130   8.279
   52MYC   9H12 7559   5.208   2.204   8.301
   52MYC   0H13 7560   5.189   2.040   8.259
   52MYC    C67 7561   5.052   2.107   8.409
   52MYC   7H12 7562   5.014   2.004   8.402
   52MYC   8H12 7563   4.961   2.167   8.416
   52MYC    C66 7564   5.143   2.129   8.531
   52MYC   5H12 7565   5.167   2.236   8.536
   52MYC   6H12 7566   5.240   2.081   8.514
   52MYC    C65 7567   5.077   2.087   8.664
   52MYC   3H12 7568   5.115   1.984   8.664
   52MYC   4H12 7569   4.968   2.087   8.654
   52MYC    C64 7570   5.130   2.168   8.783
   52MYC   1H12 7571   5.104   2.274   8.771
   52MYC   2H12 7572   5.240   2.170   8.779
   52MYC    C63 7573   5.075   2.120   8.918
   52MYC   9H11 7574   5.068   2.010   8.921
   52MYC   0H12 7575   4.970   2.150   8.916
   52MYC    C62 7576   5.139   2.191   9.038
   52MYC   7H11 7577   5.139   2.299   9.015
   52MYC   8H11 7578   5.245   2.162   9.046
   52MYC    C61 7579   5.071   2.167   9.174
   52MYC   5H11 7580   5.064   2.060   9.197
   52MYC   6H11 7581   4.966   2.196   9.163
   52MYC    C60 7582   5.122   2.250   9.291
   52MYC   4H11 7583   5.140   2.354   9.265
   52MYC    C58 7584   5.054   2.236   9.424
   52MYC   1H11 7585   4.963   2.177   9.424
   52MYC    C59 7586   5.189   2.174   9.403
   52MYC   2H11 7587   5.281   2.219   9.440
   52MYC   3H11 7588   5.199   2.068   9.383
   52MYC    C57 7589   5.038   2.346   9.529
   52MYC   9H10 7590   4.948   2.404   9.506
   52MYC   0H11 7591   5.119   2.419   9.514
   52MYC    C56 7592   5.041   2.300   9.676
   52MYC   7H10 7593   5.139   2.257   9.700
   52MYC   8H10 7594   4.964   2.222   9.683
   52MYC    C55 7595   5.007   2.408   9.780
   52MYC   5H10 7596   4.907   2.448   9.759
   52MYC   6H10 7597   5.079   2.491   9.782
   52MYC    C54 7598   5.020   2.350   9.922
   52MYC   3H10 7599   5.119   2.305   9.932
   52MYC   4H10 7600   4.950   2.266   9.933
   52MYC    C53 7601   5.006   2.454  10.034
   52MYC   1H10 7602   4.917   2.514  10.012
   52MYC   2H10 7603   5.090   2.524  10.038
   52MYC    C52 7604   4.984   2.395  10.175
   52MYC    H99 7605   5.044   2.303  10.171
   52MYC   0H10 7606   4.882   2.354  10.173
   52MYC    C51 7607   5.006   2.490  10.294
   52MYC    H97 7608   4.909   2.538  10.312
   52MYC    H98 7609   5.077   2.566  10.258
   52MYC    C50 7610   5.057   2.429  10.425
   52MYC    H95 7611   5.147   2.371  10.400
   52MYC    H96 7612   4.976   2.364  10.459
   52MYC    C49 7613   5.096   2.534  10.530
   52MYC    H93 7614   5.004   2.565  10.580
   52MYC    H94 7615   5.129   2.623  10.476
   52MYC    C48 7616   5.197   2.482  10.635
   52MYC    H91 7617   5.294   2.482  10.585
   52MYC    H92 7618   5.174   2.376  10.651
   52MYC    C47 7619   5.197   2.568  10.763
   52MYC    H89 7620   5.096   2.578  10.805
   52MYC    H90 7621   5.230   2.668  10.731
   52MYC    C46 7622   5.294   2.519  10.872
   52MYC    H87 7623   5.397   2.536  10.839
   52MYC    H88 7624   5.291   2.409  10.875
   52MYC    C45 7625   5.270   2.576  11.013
   52MYC    H85 7626   5.182   2.529  11.058
   52MYC    H86 7627   5.243   2.682  11.004
   52MYC    C44 7628   5.385   2.552  11.112
   52MYC    H83 7629   5.374   2.599  11.211
   52MYC    H84 7630   5.479   2.591  11.071
   52MYC    C18 7631   5.401   2.403  11.139
   52MYC    H31 7632   5.308   2.360  11.173
   52MYC    C17 7633   5.495   2.320  11.055
   52MYC    H30 7634   5.549   2.380  10.983
   52MYC    C19 7635   5.527   2.347  11.199
   52MYC    H32 7636   5.614   2.412  11.211
   52MYC    H33 7637   5.523   2.279  11.285
   52MYC    C16 7638   5.463   2.176  11.014
   52MYC    H28 7639   5.356   2.161  10.991
   52MYC    H29 7640   5.491   2.119  11.103
   52MYC    C15 7641   5.550   2.119  10.902
   52MYC    H26 7642   5.548   2.009  10.892
   52MYC    H27 7643   5.651   2.143  10.938
   52MYC    C14 7644   5.538   2.192  10.767
   52MYC    H24 7645   5.572   2.294  10.787
   52MYC    H25 7646   5.434   2.192  10.733
   52MYC    C13 7647   5.625   2.118  10.663
   52MYC    H22 7648   5.564   2.040  10.616
   52MYC    H23 7649   5.713   2.071  10.708
   52MYC    C12 7650   5.674   2.215  10.555
   52MYC    H20 7651   5.749   2.283  10.599
   52MYC    H21 7652   5.595   2.284  10.523
   52MYC    C11 7653   5.737   2.136  10.439
   52MYC    H18 7654   5.665   2.076  10.383
   52MYC    H19 7655   5.813   2.073  10.488
   52MYC    C10 7656   5.820   2.228  10.348
   52MYC    H16 7657   5.888   2.182  10.275
   52MYC    H17 7658   5.891   2.288  10.407
   52MYC     C9 7659   5.733   2.335  10.280
   52MYC    H14 7660   5.803   2.395  10.220
   52MYC    H15 7661   5.684   2.397  10.355
   52MYC     C8 7662   5.621   2.284  10.187
   52MYC    H12 7663   5.568   2.197  10.228
   52MYC    H13 7664   5.674   2.242  10.101
   52MYC     C7 7665   5.520   2.392  10.148
   52MYC    H10 7666   5.560   2.493  10.132
   52MYC    H11 7667   5.451   2.388  10.233
   52MYC     C6 7668   5.445   2.355  10.018
   52MYC     H8 7669   5.356   2.418  10.024
   52MYC     H9 7670   5.410   2.252  10.029
   52MYC     C5 7671   5.526   2.377   9.890
   52MYC     H6 7672   5.633   2.371   9.916
   52MYC     H7 7673   5.512   2.481   9.857
   52MYC     C4 7674   5.482   2.276   9.782
   52MYC     H4 7675   5.386   2.313   9.746
   52MYC     H5 7676   5.477   2.175   9.825
   52MYC     C2 7677   5.565   2.257   9.654
   52MYC     H2 7678   5.488   2.257   9.575
   52MYC     O3 7679   5.665   2.356   9.633
   52MYC     H3 7680   5.731   2.349   9.704
   52MYC     C1 7681   5.620   2.114   9.651
   52MYC     H1 7682   5.535   2.044   9.657
   52MYC    C81 7683   5.717   2.096   9.767
   52MYC    O82 7684   5.824   2.152   9.778
   52MYC    O83 7685   5.668   2.017   9.865
   52MYC   6H15 7686   5.740   2.017   9.931
   52MYC    C20 7687   5.684   2.088   9.514
   52MYC    H34 7688   5.757   2.166   9.488
   52MYC    H35 7689   5.740   1.995   9.527
   52MYC    C21 7690   5.571   2.070   9.411
   52MYC    H36 7691   5.488   2.004   9.437
   52MYC    H37 7692   5.517   2.164   9.395
   52MYC    C22 7693   5.635   2.028   9.277
   52MYC    H38 7694   5.699   2.107   9.237
   52MYC    H39 7695   5.697   1.938   9.288
   52MYC    C23 7696   5.532   2.012   9.164
   52MYC    H40 7697   5.451   1.948   9.199
   52MYC    H41 7698   5.489   2.112   9.149
   52MYC    C24 7699   5.598   1.972   9.030
   52MYC    H42 7700   5.695   2.022   9.024
   52MYC    H43 7701   5.614   1.864   9.022
   52MYC    C25 7702   5.513   2.017   8.910
   52MYC    H44 7703   5.411   1.978   8.918
   52MYC    H45 7704   5.511   2.125   8.924
   52MYC    C26 7705   5.574   1.978   8.774
   52MYC    H46 7706   5.676   2.020   8.777
   52MYC    H47 7707   5.587   1.870   8.763
   52MYC    C27 7708   5.504   2.024   8.645
   52MYC    H48 7709   5.398   1.998   8.644
   52MYC    H49 7710   5.513   2.133   8.650
   52MYC    C28 7711   5.575   1.978   8.517
   52MYC    H50 7712   5.685   1.975   8.523
   52MYC    H51 7713   5.559   1.871   8.497
   52MYC    C29 7714   5.541   2.053   8.386
   52MYC    H52 7715   5.432   2.056   8.375
   52MYC    H53 7716   5.574   2.157   8.394
   52MYC    C30 7717   5.595   1.987   8.258
   52MYC    H54 7718   5.704   1.996   8.265
   52MYC    H55 7719   5.564   1.883   8.249
   52MYC    C31 7720   5.543   2.060   8.132
   52MYC    H56 7721   5.435   2.043   8.120
   52MYC    H57 7722   5.569   2.166   8.143
   52MYC    C32 7723   5.606   2.012   8.000
   52MYC    H58 7724   5.715   2.007   8.009
   52MYC    H59 7725   5.568   1.910   7.987
   52MYC    C33 7726   5.571   2.110   7.886
   52MYC    H60 7727   5.464   2.133   7.889
   52MYC    H61 7728   5.617   2.207   7.908
   52MYC    C34 7729   5.613   2.052   7.750
   52MYC    H62 7730   5.721   2.063   7.736
   52MYC    H63 7731   5.587   1.946   7.742
   52MYC    C35 7732   5.539   2.117   7.631
   52MYC    H64 7733   5.431   2.131   7.645
   52MYC    H65 7734   5.583   2.213   7.603
   52MYC    C36 7735   5.552   2.037   7.500
   52MYC    H66 7736   5.657   2.010   7.485
   52MYC    H67 7737   5.506   1.938   7.510
   52MYC    C37 7738   5.504   2.106   7.372
   52MYC    H68 7739   5.395   2.109   7.383
   52MYC    H69 7740   5.537   2.210   7.360
   52MYC    C38 7741   5.545   2.031   7.244
   52MYC    H70 7742   5.654   2.023   7.237
   52MYC    H71 7743   5.508   1.928   7.245
   52MYC    C39 7744   5.485   2.095   7.118
   52MYC    H72 7745   5.376   2.083   7.109
   52MYC    H73 7746   5.493   2.204   7.127
   52MYC    C40 7747   5.561   2.057   6.990
   52MYC    H74 7748   5.666   2.087   6.999
   52MYC    H75 7749   5.554   1.949   6.972
   52MYC    C41 7750   5.512   2.141   6.871
   52MYC    H76 7751   5.402   2.133   6.868
   52MYC    H77 7752   5.529   2.248   6.889
   52MYC    C42 7753   5.586   2.108   6.741
   52MYC    H78 7754   5.695   2.114   6.752
   52MYC    H79 7755   5.570   2.004   6.708
   52MYC    C43 7756   5.548   2.206   6.629
   52MYC    H80 7757   5.613   2.189   6.542
   52MYC    H81 7758   5.564   2.311   6.656
   52MYC    H82 7759   5.443   2.187   6.604
   53MYC   5H15 7760   6.280   2.769   6.649
   53MYC    C80 7761   6.232   2.691   6.710
   53MYC   3H15 7762   6.131   2.663   6.678
   53MYC   4H15 7763   6.290   2.598   6.713
   53MYC    C79 7764   6.229   2.747   6.854
   53MYC   1H15 7765   6.163   2.834   6.857
   53MYC   2H15 7766   6.328   2.794   6.864
   53MYC    C78 7767   6.201   2.655   6.974
   53MYC   9H14 7768   6.281   2.580   6.977
   53MYC   0H15 7769   6.112   2.594   6.956
   53MYC    C77 7770   6.195   2.717   7.114
   53MYC   7H14 7771   6.103   2.776   7.115
   53MYC   8H14 7772   6.282   2.784   7.127
   53MYC    C76 7773   6.198   2.613   7.228
   53MYC   5H14 7774   6.305   2.597   7.244
   53MYC   6H14 7775   6.147   2.518   7.210
   53MYC    C75 7776   6.143   2.655   7.365
   53MYC   3H14 7777   6.038   2.686   7.352
   53MYC   4H14 7778   6.203   2.740   7.400
   53MYC    C74 7779   6.160   2.556   7.481
   53MYC   1H14 7780   6.268   2.550   7.503
   53MYC   2H14 7781   6.143   2.452   7.453
   53MYC    C73 7782   6.078   2.596   7.605
   53MYC   9H13 7783   5.975   2.622   7.578
   53MYC   0H14 7784   6.126   2.689   7.639
   53MYC    C72 7785   6.079   2.494   7.719
   53MYC   7H13 7786   6.185   2.471   7.738
   53MYC   8H13 7787   6.036   2.398   7.686
   53MYC    C71 7788   6.022   2.548   7.851
   53MYC   5H13 7789   5.914   2.559   7.831
   53MYC   6H13 7790   6.071   2.645   7.860
   53MYC    C70 7791   6.051   2.469   7.980
   53MYC   3H13 7792   6.159   2.452   7.981
   53MYC   4H13 7793   5.992   2.376   7.981
   53MYC    C69 7794   6.009   2.547   8.106
   53MYC   1H13 7795   5.900   2.542   8.122
   53MYC   2H13 7796   6.038   2.651   8.089
   53MYC    C68 7797   6.082   2.502   8.234
   53MYC   9H12 7798   6.189   2.493   8.213
   53MYC   0H13 7799   6.041   2.407   8.270
   53MYC    C67 7800   6.070   2.605   8.347
   53MYC   7H12 7801   5.966   2.637   8.358
   53MYC   8H12 7802   6.128   2.694   8.320
   53MYC    C66 7803   6.112   2.543   8.482
   53MYC   5H12 7804   6.213   2.500   8.470
   53MYC   6H12 7805   6.053   2.455   8.512
   53MYC    C65 7806   6.121   2.640   8.601
   53MYC   3H12 7807   6.021   2.681   8.615
   53MYC   4H12 7808   6.193   2.720   8.577
   53MYC    C64 7809   6.164   2.579   8.735
   53MYC   1H12 7810   6.261   2.531   8.718
   53MYC   2H12 7811   6.090   2.503   8.762
   53MYC    C63 7812   6.176   2.680   8.851
   53MYC   9H11 7813   6.081   2.733   8.864
   53MYC   0H12 7814   6.248   2.753   8.812
   53MYC    C62 7815   6.229   2.620   8.983
   53MYC   7H11 7816   6.336   2.605   8.969
   53MYC   8H11 7817   6.181   2.524   9.005
   53MYC    C61 7818   6.217   2.722   9.097
   53MYC   5H11 7819   6.113   2.756   9.106
   53MYC   6H11 7820   6.268   2.816   9.072
   53MYC    C60 7821   6.276   2.689   9.233
   53MYC   4H11 7822   6.382   2.711   9.238
   53MYC    C58 7823   6.195   2.686   9.361
   53MYC   1H11 7824   6.089   2.712   9.354
   53MYC    C59 7825   6.226   2.558   9.288
   53MYC   2H11 7826   6.297   2.484   9.325
   53MYC   3H11 7827   6.138   2.517   9.238
   53MYC    C57 7828   6.252   2.719   9.498
   53MYC   9H10 7829   6.285   2.823   9.498
   53MYC   0H11 7830   6.340   2.660   9.528
   53MYC    C56 7831   6.144   2.692   9.605
   53MYC   7H10 7832   6.118   2.586   9.613
   53MYC   8H10 7833   6.054   2.753   9.588
   53MYC    C55 7834   6.193   2.755   9.736
   53MYC   5H10 7835   6.177   2.863   9.739
   53MYC   6H10 7836   6.302   2.751   9.752
   53MYC    C54 7837   6.136   2.681   9.858
   53MYC   3H10 7838   6.149   2.574   9.839
   53MYC   4H10 7839   6.027   2.691   9.864
   53MYC    C53 7840   6.205   2.715   9.991
   53MYC   1H10 7841   6.178   2.818  10.017
   53MYC   2H10 7842   6.313   2.725   9.974
   53MYC    C52 7843   6.184   2.621  10.111
   53MYC    H99 7844   6.213   2.519  10.082
   53MYC   0H10 7845   6.076   2.611  10.126
   53MYC    C51 7846   6.262   2.669  10.234
   53MYC    H97 7847   6.227   2.766  10.272
   53MYC    H98 7848   6.365   2.690  10.202
   53MYC    C50 7849   6.259   2.569  10.351
   53MYC    H95 7850   6.278   2.466  10.318
   53MYC    H96 7851   6.158   2.560  10.395
   53MYC    C49 7852   6.355   2.613  10.463
   53MYC    H93 7853   6.344   2.722  10.471
   53MYC    H94 7854   6.461   2.598  10.439
   53MYC    C48 7855   6.315   2.539  10.592
   53MYC    H91 7856   6.334   2.432  10.577
   53MYC    H92 7857   6.209   2.540  10.618
   53MYC    C47 7858   6.400   2.600  10.705
   53MYC    H89 7859   6.417   2.708  10.700
   53MYC    H90 7860   6.503   2.560  10.705
   53MYC    C46 7861   6.328   2.574  10.838
   53MYC    H87 7862   6.323   2.466  10.859
   53MYC    H88 7863   6.227   2.617  10.837
   53MYC    C45 7864   6.400   2.648  10.952
   53MYC    H85 7865   6.402   2.756  10.936
   53MYC    H86 7866   6.500   2.603  10.959
   53MYC    C44 7867   6.333   2.633  11.089
   53MYC    H83 7868   6.379   2.705  11.157
   53MYC    H84 7869   6.361   2.534  11.128
   53MYC    C18 7870   6.181   2.650  11.092
   53MYC    H31 7871   6.148   2.733  11.031
   53MYC    C17 7872   6.092   2.529  11.095
   53MYC    H30 7873   6.137   2.432  11.117
   53MYC    C19 7874   6.102   2.618  11.216
   53MYC    H32 7875   6.156   2.586  11.305
   53MYC    H33 7876   6.026   2.694  11.231
   53MYC    C16 7877   5.971   2.526  11.003
   53MYC    H28 7878   5.979   2.591  10.916
   53MYC    H29 7879   5.870   2.557  11.036
   53MYC    C15 7880   5.941   2.379  10.969
   53MYC    H26 7881   5.838   2.369  10.930
   53MYC    H27 7882   5.944   2.326  11.064
   53MYC    C14 7883   6.035   2.316  10.865
   53MYC    H24 7884   6.126   2.294  10.923
   53MYC    H25 7885   6.063   2.391  10.790
   53MYC    C13 7886   5.997   2.184  10.795
   53MYC    H22 7887   5.894   2.197  10.757
   53MYC    H23 7888   6.002   2.106  10.872
   53MYC    C12 7889   6.085   2.141  10.677
   53MYC    H20 7890   6.190   2.165  10.696
   53MYC    H21 7891   6.045   2.198  10.592
   53MYC    C11 7892   6.072   1.990  10.651
   53MYC    H18 7893   5.968   1.971  10.621
   53MYC    H19 7894   6.090   1.937  10.745
   53MYC    C10 7895   6.172   1.931  10.550
   53MYC    H16 7896   6.200   1.831  10.585
   53MYC    H17 7897   6.268   1.983  10.546
   53MYC     C9 7898   6.116   1.918  10.407
   53MYC    H14 7899   6.093   2.020  10.373
   53MYC    H15 7900   6.025   1.858  10.421
   53MYC     C8 7901   6.211   1.835  10.319
   53MYC    H12 7902   6.202   1.728  10.341
   53MYC    H13 7903   6.312   1.858  10.352
   53MYC     C7 7904   6.195   1.865  10.169
   53MYC    H10 7905   6.213   1.972  10.152
   53MYC    H11 7906   6.091   1.854  10.137
   53MYC     C6 7907   6.293   1.783  10.084
   53MYC     H8 7908   6.256   1.680  10.092
   53MYC     H9 7909   6.397   1.794  10.118
   53MYC     C5 7910   6.288   1.802   9.931
   53MYC     H6 7911   6.352   1.724   9.889
   53MYC     H7 7912   6.336   1.893   9.893
   53MYC     C4 7913   6.146   1.787   9.874
   53MYC     H4 7914   6.103   1.887   9.887
   53MYC     H5 7915   6.090   1.714   9.933
   53MYC     C2 7916   6.152   1.754   9.724
   53MYC     H2 7917   6.211   1.831   9.673
   53MYC     O3 7918   6.207   1.623   9.707
   53MYC     H3 7919   6.139   1.562   9.674
   53MYC     C1 7920   6.011   1.752   9.663
   53MYC     H1 7921   5.974   1.854   9.648
   53MYC    C81 7922   5.919   1.676   9.758
   53MYC    O82 7923   5.893   1.557   9.747
   53MYC    O83 7924   5.849   1.764   9.833
   53MYC   6H15 7925   5.801   1.705   9.894
   53MYC    C20 7926   6.007   1.689   9.522
   53MYC    H34 7927   6.047   1.588   9.530
   53MYC    H35 7928   5.902   1.674   9.492
   53MYC    C21 7929   6.065   1.774   9.408
   53MYC    H36 7930   6.030   1.877   9.425
   53MYC    H37 7931   6.175   1.779   9.410
   53MYC    C22 7932   6.036   1.718   9.268
   53MYC    H38 7933   6.074   1.616   9.255
   53MYC    H39 7934   5.928   1.704   9.261
   53MYC    C23 7935   6.083   1.821   9.163
   53MYC    H40 7936   6.048   1.922   9.188
   53MYC    H41 7937   6.192   1.831   9.168
   53MYC    C24 7938   6.046   1.772   9.022
   53MYC    H42 7939   6.054   1.663   9.018
   53MYC    H43 7940   5.941   1.790   8.999
   53MYC    C25 7941   6.132   1.831   8.909
   53MYC    H44 7942   6.150   1.937   8.928
   53MYC    H45 7943   6.229   1.782   8.891
   53MYC    C26 7944   6.059   1.818   8.775
   53MYC    H46 7945   6.043   1.712   8.750
   53MYC    H47 7946   5.955   1.851   8.790
   53MYC    C27 7947   6.131   1.891   8.660
   53MYC    H48 7948   6.164   1.992   8.688
   53MYC    H49 7949   6.224   1.844   8.627
   53MYC    C28 7950   6.041   1.901   8.536
   53MYC    H50 7951   6.002   1.799   8.521
   53MYC    H51 7952   5.957   1.969   8.559
   53MYC    C29 7953   6.114   1.947   8.409
   53MYC    H52 7954   6.153   2.047   8.435
   53MYC    H53 7955   6.202   1.885   8.391
   53MYC    C30 7956   6.033   1.933   8.279
   53MYC    H54 7957   6.015   1.826   8.261
   53MYC    H55 7958   5.933   1.977   8.289
   53MYC    C31 7959   6.103   1.991   8.154
   53MYC    H56 7960   6.103   2.100   8.158
   53MYC    H57 7961   6.208   1.959   8.154
   53MYC    C32 7962   6.038   1.951   8.020
   53MYC    H58 7963   6.038   1.841   8.021
   53MYC    H59 7964   5.933   1.981   8.028
   53MYC    C33 7965   6.117   2.000   7.898
   53MYC    H60 7966   6.134   2.108   7.907
   53MYC    H61 7967   6.209   1.940   7.889
   53MYC    C34 7968   6.034   1.971   7.772
   53MYC    H62 7969   6.026   1.863   7.752
   53MYC    H63 7970   5.929   2.000   7.787
   53MYC    C35 7971   6.098   2.028   7.645
   53MYC    H64 7972   6.123   2.133   7.665
   53MYC    H65 7973   6.183   1.963   7.617
   53MYC    C36 7974   6.005   2.025   7.523
   53MYC    H66 7975   5.965   1.923   7.518
   53MYC    H67 7976   5.922   2.094   7.541
   53MYC    C37 7977   6.076   2.062   7.391
   53MYC    H68 7978   6.117   2.163   7.395
   53MYC    H69 7979   6.161   1.997   7.367
   53MYC    C38 7980   5.987   2.041   7.267
   53MYC    H70 7981   5.979   1.933   7.250
   53MYC    H71 7982   5.886   2.079   7.288
   53MYC    C39 7983   6.050   2.106   7.143
   53MYC    H72 7984   6.029   2.212   7.162
   53MYC    H73 7985   6.159   2.101   7.149
   53MYC    C40 7986   5.992   2.056   7.009
   53MYC    H74 7987   6.008   1.948   7.007
   53MYC    H75 7988   5.883   2.070   7.005
   53MYC    C41 7989   6.058   2.137   6.896
   53MYC    H76 7990   6.010   2.235   6.885
   53MYC    H77 7991   6.164   2.153   6.919
   53MYC    C42 7992   6.037   2.055   6.767
   53MYC    H78 7993   6.077   1.955   6.787
   53MYC    H79 7994   5.931   2.044   6.741
   53MYC    C43 7995   6.114   2.110   6.646
   53MYC    H80 7996   6.077   2.073   6.549
   53MYC    H81 7997   6.224   2.104   6.645
   53MYC    H82 7998   6.094   2.218   6.644
   54MYC   5H15 7999   0.207   2.788   6.530
   54MYC    C80 8000   0.248   2.824   6.625
   54MYC   3H15 8001   0.357   2.824   6.621
   54MYC   4H15 8002   0.212   2.927   6.638
   54MYC    C79 8003   0.198   2.728   6.734
   54MYC   1H15 8004   0.259   2.637   6.725
   54MYC   2H15 8005   0.093   2.704   6.712
   54MYC    C78 8006   0.200   2.807   6.867
   54MYC   9H14 8007   0.110   2.870   6.871
   54MYC   0H15 8008   0.278   2.883   6.870
   54MYC    C77 8009   0.206   2.717   6.992
   54MYC   7H14 8010   0.303   2.669   7.005
   54MYC   8H14 8011   0.134   2.636   6.977
   54MYC    C76 8012   0.170   2.798   7.118
   54MYC   5H14 8013   0.073   2.847   7.102
   54MYC   6H14 8014   0.245   2.877   7.122
   54MYC    C75 8015   0.177   2.722   7.252
   54MYC   3H14 8016   0.278   2.682   7.269
   54MYC   4H14 8017   0.117   2.630   7.246
   54MYC    C74 8018   0.134   2.804   7.375
   54MYC   1H14 8019   0.033   2.840   7.352
   54MYC   2H14 8020   0.189   2.896   7.397
   54MYC    C73 8021   0.138   2.721   7.504
   54MYC   9H13 8022   0.243   2.692   7.521
   54MYC   0H14 8023   0.084   2.627   7.490
   54MYC    C72 8024   0.092   2.785   7.636
   54MYC   7H13 8025   0.020   2.867   7.623
   54MYC   8H13 8026   0.179   2.830   7.686
   54MYC    C71 8027   0.029   2.683   7.732
   54MYC   5H13 8028   0.103   2.603   7.735
   54MYC   6H13 8029  -0.066   2.648   7.690
   54MYC    C70 8030  -0.000   2.748   7.869
   54MYC   3H13 8031  -0.108   2.746   7.886
   54MYC   4H13 8032   0.019   2.856   7.859
   54MYC    C69 8033   0.093   2.698   7.980
   54MYC   1H13 8034   0.194   2.733   7.957
   54MYC   2H13 8035   0.102   2.589   7.979
   54MYC    C68 8036   0.049   2.768   8.110
   54MYC   9H12 8037  -0.051   2.731   8.136
   54MYC   0H13 8038   0.038   2.876   8.095
   54MYC    C67 8039   0.138   2.743   8.233
   54MYC   7H12 8040   0.238   2.786   8.216
   54MYC   8H12 8041   0.156   2.636   8.247
   54MYC    C66 8042   0.073   2.799   8.361
   54MYC   5H12 8043  -0.002   2.725   8.392
   54MYC   6H12 8044   0.021   2.893   8.341
   54MYC    C65 8045   0.169   2.813   8.481
   54MYC   3H12 8046   0.253   2.879   8.456
   54MYC   4H12 8047   0.209   2.713   8.503
   54MYC    C64 8048   0.103   2.881   8.602
   54MYC   1H12 8049  -0.002   2.857   8.624
   54MYC   2H12 8050   0.098   2.988   8.578
   54MYC    C63 8051   0.170   2.839   8.734
   54MYC   9H11 8052   0.279   2.848   8.725
   54MYC   0H12 8053   0.142   2.735   8.755
   54MYC    C62 8054   0.116   2.916   8.855
   54MYC   7H11 8055   0.006   2.926   8.848
   54MYC   8H11 8056   0.150   3.020   8.850
   54MYC    C61 8057   0.176   2.858   8.984
   54MYC   5H11 8058   0.282   2.884   8.976
   54MYC   6H11 8059   0.158   2.749   8.984
   54MYC    C60 8060   0.119   2.927   9.107
   54MYC   4H11 8061   0.012   2.924   9.124
   54MYC    C58 8062   0.196   2.913   9.236
   54MYC   1H11 8063   0.293   2.864   9.230
   54MYC    C59 8064   0.188   3.047   9.167
   54MYC   2H11 8065   0.128   3.124   9.215
   54MYC   3H11 8066   0.281   3.082   9.123
   54MYC    C57 8067   0.130   2.886   9.370
   54MYC   9H10 8068   0.102   2.781   9.380
   54MYC   0H11 8069   0.036   2.943   9.367
   54MYC    C56 8070   0.200   2.942   9.495
   54MYC   7H10 8071   0.189   3.050   9.507
   54MYC   8H10 8072   0.308   2.920   9.498
   54MYC    C55 8073   0.141   2.866   9.616
   54MYC   5H10 8074   0.181   2.764   9.608
   54MYC   6H10 8075   0.032   2.865   9.604
   54MYC    C54 8076   0.198   2.926   9.746
   54MYC   3H10 8077   0.172   3.032   9.743
   54MYC   4H10 8078   0.307   2.927   9.749
   54MYC    C53 8079   0.142   2.859   9.873
   54MYC   1H10 8080   0.176   2.754   9.870
   54MYC   2H10 8081   0.033   2.852   9.865
   54MYC    C52 8082   0.190   2.943   9.992
   54MYC    H99 8083   0.119   3.027   9.991
   54MYC   0H10 8084   0.292   2.978   9.971
   54MYC    C51 8085   0.192   2.881  10.132
   54MYC    H97 8086   0.246   2.785  10.128
   54MYC    H98 8087   0.087   2.860  10.158
   54MYC    C50 8088   0.263   2.954  10.247
   54MYC    H95 8089   0.232   3.057  10.266
   54MYC    H96 8090   0.367   2.972  10.216
   54MYC    C49 8091   0.257   2.877  10.380
   54MYC    H93 8092   0.322   2.789  10.375
   54MYC    H94 8093   0.152   2.852  10.396
   54MYC    C48 8094   0.304   2.965  10.498
   54MYC    H91 8095   0.250   3.061  10.505
   54MYC    H92 8096   0.409   2.993  10.485
   54MYC    C47 8097   0.291   2.881  10.625
   54MYC    H89 8098   0.264   2.779  10.595
   54MYC    H90 8099   0.208   2.924  10.683
   54MYC    C46 8100   0.418   2.875  10.712
   54MYC    H87 8101   0.447   2.976  10.744
   54MYC    H88 8102   0.502   2.841  10.651
   54MYC    C45 8103   0.405   2.779  10.832
   54MYC    H85 8104   0.505   2.741  10.858
   54MYC    H86 8105   0.344   2.698  10.791
   54MYC    C44 8106   0.350   2.855  10.954
   54MYC    H83 8107   0.294   2.788  11.020
   54MYC    H84 8108   0.268   2.926  10.936
   54MYC    C18 8109   0.458   2.933  11.026
   54MYC    H31 8110   0.514   2.993  10.955
   54MYC    C17 8111   0.448   2.987  11.167
   54MYC    H30 8112   0.358   2.959  11.221
   54MYC    C19 8113   0.540   2.871  11.137
   54MYC    H32 8114   0.509   2.777  11.181
   54MYC    H33 8115   0.648   2.885  11.130
   54MYC    C16 8116   0.503   3.124  11.200
   54MYC    H28 8117   0.601   3.141  11.152
   54MYC    H29 8118   0.527   3.125  11.307
   54MYC    C15 8119   0.415   3.244  11.161
   54MYC    H26 8120   0.435   3.338  11.214
   54MYC    H27 8121   0.313   3.219  11.194
   54MYC    C14 8122   0.417   3.265  11.009
   54MYC    H24 8123   0.345   3.197  10.964
   54MYC    H25 8124   0.519   3.242  10.974
   54MYC    C13 8125   0.383   3.410  10.968
   54MYC    H22 8126   0.441   3.480  11.029
   54MYC    H23 8127   0.279   3.427  10.998
   54MYC    C12 8128   0.396   3.432  10.816
   54MYC    H20 8129   0.366   3.535  10.795
   54MYC    H21 8130   0.322   3.370  10.764
   54MYC    C11 8131   0.538   3.413  10.760
   54MYC    H18 8132   0.562   3.307  10.751
   54MYC    H19 8133   0.615   3.448  10.831
   54MYC    C10 8134   0.552   3.479  10.621
   54MYC    H16 8135   0.654   3.467  10.581
   54MYC    H17 8136   0.530   3.586  10.623
   54MYC     C9 8137   0.452   3.409  10.527
   54MYC    H14 8138   0.348   3.439  10.542
   54MYC    H15 8139   0.461   3.301  10.539
   54MYC     C8 8140   0.481   3.440  10.379
   54MYC    H12 8141   0.578   3.405  10.343
   54MYC    H13 8142   0.454   3.545  10.366
   54MYC     C7 8143   0.390   3.364  10.281
   54MYC    H10 8144   0.289   3.406  10.292
   54MYC    H11 8145   0.382   3.256  10.300
   54MYC     C6 8146   0.440   3.381  10.137
   54MYC     H8 8147   0.531   3.321  10.125
   54MYC     H9 8148   0.463   3.486  10.116
   54MYC     C5 8149   0.334   3.327  10.039
   54MYC     H6 8150   0.252   3.399  10.023
   54MYC     H7 8151   0.282   3.244  10.090
   54MYC     C4 8152   0.378   3.290   9.897
   54MYC     H4 8153   0.347   3.190   9.864
   54MYC     H5 8154   0.487   3.281   9.908
   54MYC     C2 8155   0.347   3.392   9.786
   54MYC     H2 8156   0.246   3.433   9.798
   54MYC     O3 8157   0.442   3.497   9.799
   54MYC     H3 8158   0.488   3.488   9.884
   54MYC     C1 8159   0.350   3.335   9.643
   54MYC     H1 8160   0.274   3.258   9.630
   54MYC    C81 8161   0.482   3.271   9.602
   54MYC    O82 8162   0.594   3.319   9.612
   54MYC    O83 8163   0.465   3.145   9.556
   54MYC   6H15 8164   0.542   3.140   9.496
   54MYC    C20 8165   0.320   3.446   9.541
   54MYC    H34 8166   0.233   3.510   9.561
   54MYC    H35 8167   0.411   3.506   9.544
   54MYC    C21 8168   0.290   3.394   9.399
   54MYC    H36 8169   0.381   3.349   9.357
   54MYC    H37 8170   0.202   3.329   9.405
   54MYC    C22 8171   0.239   3.507   9.308
   54MYC    H38 8172   0.138   3.539   9.337
   54MYC    H39 8173   0.310   3.589   9.320
   54MYC    C23 8174   0.234   3.459   9.162
   54MYC    H40 8175   0.336   3.428   9.137
   54MYC    H41 8176   0.173   3.368   9.154
   54MYC    C24 8177   0.185   3.559   9.055
   54MYC    H42 8178   0.082   3.587   9.080
   54MYC    H43 8179   0.250   3.646   9.063
   54MYC    C25 8180   0.205   3.498   8.915
   54MYC    H44 8181   0.299   3.441   8.918
   54MYC    H45 8182   0.121   3.432   8.888
   54MYC    C26 8183   0.225   3.588   8.793
   54MYC    H46 8184   0.130   3.632   8.760
   54MYC    H47 8185   0.282   3.678   8.820
   54MYC    C27 8186   0.303   3.523   8.677
   54MYC    H48 8187   0.411   3.542   8.674
   54MYC    H49 8188   0.292   3.414   8.683
   54MYC    C28 8189   0.236   3.562   8.544
   54MYC    H50 8190   0.128   3.551   8.556
   54MYC    H51 8191   0.254   3.668   8.520
   54MYC    C29 8192   0.285   3.474   8.428
   54MYC    H52 8193   0.390   3.496   8.406
   54MYC    H53 8194   0.279   3.366   8.446
   54MYC    C30 8195   0.211   3.511   8.298
   54MYC    H54 8196   0.103   3.495   8.311
   54MYC    H55 8197   0.218   3.619   8.284
   54MYC    C31 8198   0.267   3.428   8.181
   54MYC    H56 8199   0.375   3.428   8.200
   54MYC    H57 8200   0.231   3.326   8.195
   54MYC    C32 8201   0.230   3.478   8.040
   54MYC    H58 8202   0.122   3.478   8.025
   54MYC    H59 8203   0.263   3.582   8.031
   54MYC    C33 8204   0.298   3.414   7.917
   54MYC    H60 8205   0.407   3.430   7.916
   54MYC    H61 8206   0.274   3.307   7.921
   54MYC    C34 8207   0.248   3.473   7.785
   54MYC    H62 8208   0.139   3.491   7.784
   54MYC    H63 8209   0.305   3.565   7.768
   54MYC    C35 8210   0.275   3.387   7.660
   54MYC    H64 8211   0.381   3.362   7.661
   54MYC    H65 8212   0.218   3.294   7.672
   54MYC    C36 8213   0.251   3.457   7.525
   54MYC    H66 8214   0.142   3.469   7.530
   54MYC    H67 8215   0.288   3.560   7.521
   54MYC    C37 8216   0.300   3.383   7.400
   54MYC    H68 8217   0.408   3.404   7.401
   54MYC    H69 8218   0.272   3.277   7.408
   54MYC    C38 8219   0.245   3.446   7.271
   54MYC    H70 8220   0.135   3.447   7.270
   54MYC    H71 8221   0.280   3.550   7.271
   54MYC    C39 8222   0.308   3.381   7.146
   54MYC    H72 8223   0.416   3.386   7.160
   54MYC    H73 8224   0.270   3.278   7.148
   54MYC    C40 8225   0.273   3.441   7.009
   54MYC    H74 8226   0.164   3.456   7.006
   54MYC    H75 8227   0.311   3.544   7.004
   54MYC    C41 8228   0.330   3.358   6.893
   54MYC    H76 8229   0.435   3.340   6.919
   54MYC    H77 8230   0.283   3.259   6.900
   54MYC    C42 8231   0.327   3.431   6.758
   54MYC    H78 8232   0.229   3.474   6.732
   54MYC    H79 8233   0.389   3.522   6.760
   54MYC    C43 8234   0.382   3.345   6.644
   54MYC    H80 8235   0.400   3.409   6.556
   54MYC    H81 8236   0.300   3.284   6.604
   54MYC    H82 8237   0.470   3.286   6.674
   55MYC   5H15 8238   0.891   3.182   6.666
   55MYC    C80 8239   0.943   3.163   6.761
   55MYC   3H15 8240   0.928   3.054   6.770
   55MYC   4H15 8241   1.051   3.177   6.752
   55MYC    C79 8242   0.875   3.235   6.879
   55MYC   1H15 8243   0.765   3.240   6.878
   55MYC   2H15 8244   0.903   3.341   6.883
   55MYC    C78 8245   0.927   3.179   7.013
   55MYC   9H14 8246   1.035   3.167   7.001
   55MYC   0H15 8247   0.883   3.080   7.027
   55MYC    C77 8248   0.899   3.269   7.134
   55MYC   7H14 8249   0.792   3.270   7.156
   55MYC   8H14 8250   0.906   3.377   7.114
   55MYC    C76 8251   0.985   3.232   7.256
   55MYC   5H14 8252   1.092   3.246   7.237
   55MYC   6H14 8253   0.979   3.126   7.283
   55MYC    C75 8254   0.958   3.311   7.385
   55MYC   3H14 8255   0.851   3.324   7.405
   55MYC   4H14 8256   1.003   3.411   7.376
   55MYC    C74 8257   1.014   3.241   7.510
   55MYC   1H14 8258   1.123   3.230   7.502
   55MYC   2H14 8259   0.976   3.139   7.520
   55MYC    C73 8260   0.988   3.315   7.643
   55MYC   9H13 8261   0.882   3.335   7.658
   55MYC   0H14 8262   1.015   3.420   7.627
   55MYC    C72 8263   1.061   3.249   7.761
   55MYC   7H13 8264   1.093   3.317   7.840
   55MYC   8H13 8265   1.148   3.194   7.722
   55MYC    C71 8266   0.961   3.155   7.832
   55MYC   5H13 8267   0.922   3.086   7.756
   55MYC   6H13 8268   0.876   3.211   7.871
   55MYC    C70 8269   1.016   3.063   7.942
   55MYC   3H13 8270   1.117   3.099   7.968
   55MYC   4H13 8271   1.035   2.967   7.894
   55MYC    C69 8272   0.931   3.052   8.070
   55MYC   1H13 8273   0.824   3.040   8.050
   55MYC   2H13 8274   0.945   3.144   8.127
   55MYC    C68 8275   0.970   2.930   8.156
   55MYC   9H12 8276   1.078   2.915   8.144
   55MYC   0H13 8277   0.910   2.846   8.119
   55MYC    C67 8278   0.948   2.947   8.307
   55MYC   7H12 8279   0.853   2.998   8.329
   55MYC   8H12 8280   1.027   3.013   8.345
   55MYC    C66 8281   0.950   2.820   8.395
   55MYC   5H12 8282   1.054   2.792   8.411
   55MYC   6H12 8283   0.909   2.739   8.334
   55MYC    C65 8284   0.884   2.828   8.534
   55MYC   3H12 8285   0.871   2.725   8.568
   55MYC   4H12 8286   0.782   2.870   8.528
   55MYC    C64 8287   0.964   2.912   8.635
   55MYC   1H12 8288   0.959   3.020   8.614
   55MYC   2H12 8289   1.072   2.901   8.622
   55MYC    C63 8290   0.913   2.896   8.779
   55MYC   9H11 8291   0.916   2.790   8.805
   55MYC   0H12 8292   0.807   2.924   8.782
   55MYC    C62 8293   0.999   2.983   8.872
   55MYC   7H11 8294   0.999   3.087   8.838
   55MYC   8H11 8295   1.105   2.957   8.869
   55MYC    C61 8296   0.940   2.968   9.013
   55MYC   5H11 8297   0.941   2.863   9.045
   55MYC   6H11 8298   0.838   3.008   9.019
   55MYC    C60 8299   1.021   3.046   9.116
   55MYC   4H11 8300   1.007   3.153   9.103
   55MYC    C58 8301   1.022   3.008   9.262
   55MYC   1H11 8302   0.965   2.920   9.289
   55MYC    C59 8303   1.149   3.001   9.181
   55MYC   2H11 8304   1.225   3.080   9.183
   55MYC   3H11 8305   1.196   2.908   9.150
   55MYC    C57 8306   1.020   3.120   9.366
   55MYC   9H10 8307   0.918   3.159   9.363
   55MYC   0H11 8308   1.079   3.209   9.342
   55MYC    C56 8309   1.055   3.065   9.505
   55MYC   7H10 8310   1.162   3.043   9.518
   55MYC   8H10 8311   1.005   2.969   9.523
   55MYC    C55 8312   1.016   3.169   9.612
   55MYC   5H10 8313   0.907   3.176   9.619
   55MYC   6H10 8314   1.051   3.270   9.589
   55MYC    C54 8315   1.072   3.150   9.754
   55MYC   3H10 8316   1.166   3.204   9.769
   55MYC   4H10 8317   1.079   3.042   9.771
   55MYC    C53 8318   0.975   3.199   9.863
   55MYC   1H10 8319   0.874   3.157   9.853
   55MYC   2H10 8320   0.971   3.305   9.837
   55MYC    C52 8321   1.029   3.181  10.006
   55MYC    H99 8322   1.118   3.244  10.010
   55MYC   0H10 8323   1.061   3.076  10.008
   55MYC    C51 8324   0.932   3.208  10.123
   55MYC    H97 8325   0.843   3.145  10.108
   55MYC    H98 8326   0.900   3.313  10.123
   55MYC    C50 8327   0.995   3.177  10.260
   55MYC    H95 8328   1.093   3.225  10.268
   55MYC    H96 8329   1.012   3.069  10.261
   55MYC    C49 8330   0.901   3.205  10.378
   55MYC    H93 8331   0.811   3.143  10.371
   55MYC    H94 8332   0.868   3.308  10.360
   55MYC    C48 8333   0.987   3.179  10.503
   55MYC    H91 8334   1.092   3.204  10.486
   55MYC    H92 8335   0.982   3.072  10.524
   55MYC    C47 8336   0.935   3.257  10.625
   55MYC    H89 8337   0.826   3.270  10.634
   55MYC    H90 8338   0.959   3.362  10.603
   55MYC    C46 8339   0.995   3.213  10.759
   55MYC    H87 8340   1.104   3.216  10.748
   55MYC    H88 8341   0.967   3.108  10.772
   55MYC    C45 8342   0.941   3.301  10.874
   55MYC    H85 8343   0.832   3.298  10.868
   55MYC    H86 8344   0.976   3.404  10.863
   55MYC    C44 8345   0.983   3.259  11.016
   55MYC    H83 8346   0.947   3.330  11.092
   55MYC    H84 8347   1.092   3.266  11.019
   55MYC    C18 8348   0.952   3.115  11.055
   55MYC    H31 8349   0.874   3.072  10.993
   55MYC    C17 8350   1.059   3.031  11.120
   55MYC    H30 8351   1.153   3.073  11.154
   55MYC    C19 8352   0.943   3.082  11.202
   55MYC    H32 8353   0.972   3.148  11.283
   55MYC    H33 8354   0.863   3.015  11.229
   55MYC    C16 8355   1.073   2.884  11.083
   55MYC    H28 8356   0.994   2.854  11.013
   55MYC    H29 8357   1.062   2.816  11.168
   55MYC    C15 8358   1.209   2.857  11.016
   55MYC    H26 8359   1.229   2.749  11.008
   55MYC    H27 8360   1.288   2.904  11.076
   55MYC    C14 8361   1.220   2.914  10.874
   55MYC    H24 8362   1.233   3.022  10.877
   55MYC    H25 8363   1.135   2.891  10.808
   55MYC    C13 8364   1.336   2.853  10.793
   55MYC    H22 8365   1.333   2.744  10.803
   55MYC    H23 8366   1.427   2.877  10.849
   55MYC    C12 8367   1.343   2.889  10.644
   55MYC    H20 8368   1.254   2.952  10.630
   55MYC    H21 8369   1.315   2.801  10.584
   55MYC    C11 8370   1.474   2.958  10.602
   55MYC    H18 8371   1.566   2.910  10.636
   55MYC    H19 8372   1.480   3.054  10.654
   55MYC    C10 8373   1.478   3.008  10.456
   55MYC    H16 8374   1.542   3.096  10.444
   55MYC    H17 8375   1.380   3.034  10.416
   55MYC     C9 8376   1.537   2.903  10.360
   55MYC    H14 8377   1.488   2.807  10.378
   55MYC    H15 8378   1.641   2.880  10.386
   55MYC     C8 8379   1.533   2.936  10.210
   55MYC    H12 8380   1.591   3.025  10.183
   55MYC    H13 8381   1.431   2.969  10.190
   55MYC     C7 8382   1.570   2.809  10.131
   55MYC    H10 8383   1.494   2.730  10.138
   55MYC    H11 8384   1.666   2.769  10.163
   55MYC     C6 8385   1.585   2.825   9.978
   55MYC     H8 8386   1.621   2.733   9.932
   55MYC     H9 8387   1.666   2.897   9.962
   55MYC     C5 8388   1.453   2.878   9.920
   55MYC     H6 8389   1.455   2.987   9.932
   55MYC     H7 8390   1.371   2.845   9.985
   55MYC     C4 8391   1.427   2.842   9.773
   55MYC     H4 8392   1.318   2.853   9.759
   55MYC     H5 8393   1.438   2.734   9.758
   55MYC     C2 8394   1.512   2.912   9.666
   55MYC     H2 8395   1.438   2.933   9.588
   55MYC     O3 8396   1.560   3.037   9.716
   55MYC     H3 8397   1.647   3.051   9.674
   55MYC     C1 8398   1.616   2.824   9.595
   55MYC     H1 8399   1.568   2.732   9.560
   55MYC    C81 8400   1.735   2.781   9.680
   55MYC    O82 8401   1.766   2.664   9.695
   55MYC    O83 8402   1.829   2.875   9.703
   55MYC   6H15 8403   1.904   2.826   9.742
   55MYC    C20 8404   1.666   2.891   9.466
   55MYC    H34 8405   1.706   2.991   9.488
   55MYC    H35 8406   1.754   2.831   9.440
   55MYC    C21 8407   1.559   2.901   9.357
   55MYC    H36 8408   1.479   2.828   9.374
   55MYC    H37 8409   1.525   3.006   9.361
   55MYC    C22 8410   1.617   2.878   9.216
   55MYC    H38 8411   1.714   2.930   9.225
   55MYC    H39 8412   1.634   2.770   9.207
   55MYC    C23 8413   1.533   2.926   9.097
   55MYC    H40 8414   1.437   2.873   9.098
   55MYC    H41 8415   1.499   3.029   9.110
   55MYC    C24 8416   1.606   2.915   8.962
   55MYC    H42 8417   1.672   3.000   8.941
   55MYC    H43 8418   1.661   2.821   8.968
   55MYC    C25 8419   1.501   2.896   8.851
   55MYC    H44 8420   1.446   2.806   8.882
   55MYC    H45 8421   1.445   2.991   8.849
   55MYC    C26 8422   1.575   2.868   8.719
   55MYC    H46 8423   1.675   2.914   8.717
   55MYC    H47 8424   1.602   2.762   8.720
   55MYC    C27 8425   1.495   2.906   8.593
   55MYC    H48 8426   1.395   2.870   8.618
   55MYC    H49 8427   1.488   3.016   8.591
   55MYC    C28 8428   1.558   2.851   8.464
   55MYC    H50 8429   1.656   2.897   8.448
   55MYC    H51 8430   1.577   2.743   8.464
   55MYC    C29 8431   1.468   2.874   8.343
   55MYC    H52 8432   1.373   2.826   8.369
   55MYC    H53 8433   1.450   2.981   8.327
   55MYC    C30 8434   1.531   2.815   8.216
   55MYC    H54 8435   1.631   2.859   8.203
   55MYC    H55 8436   1.551   2.709   8.234
   55MYC    C31 8437   1.453   2.840   8.085
   55MYC    H56 8438   1.349   2.805   8.081
   55MYC    H57 8439   1.432   2.945   8.061
   55MYC    C32 8440   1.525   2.778   7.964
   55MYC    H58 8441   1.630   2.810   7.972
   55MYC    H59 8442   1.511   2.670   7.969
   55MYC    C33 8443   1.462   2.823   7.831
   55MYC    H60 8444   1.356   2.795   7.825
   55MYC    H61 8445   1.465   2.931   7.811
   55MYC    C34 8446   1.539   2.760   7.713
   55MYC    H62 8447   1.647   2.760   7.732
   55MYC    H63 8448   1.507   2.655   7.710
   55MYC    C35 8449   1.513   2.822   7.575
   55MYC    H64 8450   1.405   2.832   7.564
   55MYC    H65 8451   1.557   2.922   7.583
   55MYC    C36 8452   1.572   2.752   7.452
   55MYC    H66 8453   1.680   2.773   7.451
   55MYC    H67 8454   1.561   2.643   7.464
   55MYC    C37 8455   1.513   2.801   7.318
   55MYC    H68 8456   1.416   2.751   7.307
   55MYC    H69 8457   1.492   2.908   7.325
   55MYC    C38 8458   1.605   2.785   7.195
   55MYC    H70 8459   1.698   2.835   7.224
   55MYC    H71 8460   1.630   2.681   7.169
   55MYC    C39 8461   1.544   2.843   7.067
   55MYC    H72 8462   1.444   2.802   7.046
   55MYC    H73 8463   1.529   2.950   7.084
   55MYC    C40 8464   1.631   2.830   6.941
   55MYC    H74 8465   1.712   2.903   6.930
   55MYC    H75 8466   1.681   2.732   6.940
   55MYC    C41 8467   1.542   2.831   6.815
   55MYC    H76 8468   1.474   2.745   6.808
   55MYC    H77 8469   1.480   2.920   6.808
   55MYC    C42 8470   1.630   2.829   6.688
   55MYC    H78 8471   1.705   2.909   6.690
   55MYC    H79 8472   1.684   2.735   6.699
   55MYC    C43 8473   1.538   2.830   6.565
   55MYC    H80 8474   1.597   2.808   6.475
   55MYC    H81 8475   1.509   2.936   6.556
   55MYC    H82 8476   1.449   2.767   6.572
   56MYC   5H15 8477   2.078   3.418   6.590
   56MYC    C80 8478   2.036   3.378   6.683
   56MYC   3H15 8479   1.927   3.388   6.671
   56MYC   4H15 8480   2.071   3.274   6.692
   56MYC    C79 8481   2.079   3.456   6.808
   56MYC   1H15 8482   2.058   3.563   6.795
   56MYC   2H15 8483   2.188   3.453   6.812
   56MYC    C78 8484   2.030   3.388   6.937
   56MYC   9H14 8485   2.062   3.283   6.943
   56MYC   0H15 8486   1.921   3.391   6.931
   56MYC    C77 8487   2.059   3.470   7.064
   56MYC   7H14 8488   2.013   3.568   7.048
   56MYC   8H14 8489   2.167   3.492   7.061
   56MYC    C76 8490   2.018   3.404   7.197
   56MYC   5H14 8491   2.082   3.317   7.216
   56MYC   6H14 8492   1.924   3.349   7.185
   56MYC    C75 8493   2.003   3.491   7.323
   56MYC   3H14 8494   1.917   3.557   7.307
   56MYC   4H14 8495   2.088   3.561   7.332
   56MYC    C74 8496   1.981   3.404   7.447
   56MYC   1H14 8497   2.070   3.345   7.469
   56MYC   2H14 8498   1.898   3.333   7.434
   56MYC    C73 8499   1.944   3.494   7.567
   56MYC   9H13 8500   1.848   3.545   7.555
   56MYC   0H14 8501   2.020   3.573   7.564
   56MYC    C72 8502   1.955   3.428   7.706
   56MYC   7H13 8503   2.049   3.373   7.719
   56MYC   8H13 8504   1.873   3.356   7.708
   56MYC    C71 8505   1.927   3.521   7.826
   56MYC   5H13 8506   1.825   3.558   7.836
   56MYC   6H13 8507   1.989   3.611   7.824
   56MYC    C70 8508   1.957   3.454   7.961
   56MYC   3H13 8509   2.064   3.432   7.973
   56MYC   4H13 8510   1.905   3.358   7.974
   56MYC    C69 8511   1.909   3.542   8.078
   56MYC   1H13 8512   1.805   3.518   8.101
   56MYC   2H13 8513   1.911   3.646   8.044
   56MYC    C68 8514   1.985   3.521   8.210
   56MYC   9H12 8515   2.089   3.556   8.205
   56MYC   0H13 8516   2.014   3.416   8.224
   56MYC    C67 8517   1.902   3.582   8.324
   56MYC   7H12 8518   1.796   3.553   8.323
   56MYC   8H12 8519   1.902   3.691   8.318
   56MYC    C66 8520   1.967   3.537   8.456
   56MYC   5H12 8521   2.072   3.561   8.440
   56MYC   6H12 8522   1.949   3.430   8.476
   56MYC    C65 8523   1.921   3.621   8.576
   56MYC   3H12 8524   1.816   3.598   8.599
   56MYC   4H12 8525   1.934   3.728   8.553
   56MYC    C64 8526   1.997   3.578   8.702
   56MYC   1H12 8527   2.105   3.591   8.685
   56MYC   2H12 8528   1.978   3.471   8.720
   56MYC    C63 8529   1.956   3.662   8.824
   56MYC   9H11 8530   1.853   3.630   8.843
   56MYC   0H12 8531   1.953   3.769   8.803
   56MYC    C62 8532   2.031   3.623   8.953
   56MYC   7H11 8533   2.139   3.643   8.947
   56MYC   8H11 8534   2.012   3.515   8.961
   56MYC    C61 8535   1.979   3.692   9.080
   56MYC   5H11 8536   1.883   3.648   9.111
   56MYC   6H11 8537   1.959   3.799   9.068
   56MYC    C60 8538   2.082   3.675   9.191
   56MYC   4H11 8539   2.174   3.729   9.168
   56MYC    C58 8540   2.047   3.633   9.331
   56MYC   1H11 8541   1.942   3.616   9.349
   56MYC    C59 8542   2.112   3.534   9.237
   56MYC   2H11 8543   2.211   3.496   9.260
   56MYC   3H11 8544   2.047   3.454   9.203
   56MYC    C57 8545   2.116   3.704   9.447
   56MYC   9H10 8546   2.079   3.807   9.447
   56MYC   0H11 8547   2.223   3.706   9.423
   56MYC    C56 8548   2.094   3.623   9.576
   56MYC   7H10 8549   2.154   3.532   9.580
   56MYC   8H10 8550   1.990   3.589   9.581
   56MYC    C55 8551   2.120   3.705   9.704
   56MYC   5H10 8552   2.053   3.792   9.706
   56MYC   6H10 8553   2.223   3.742   9.699
   56MYC    C54 8554   2.093   3.614   9.825
   56MYC   3H10 8555   2.166   3.532   9.827
   56MYC   4H10 8556   1.994   3.567   9.829
   56MYC    C53 8557   2.127   3.687   9.957
   56MYC   1H10 8558   2.093   3.791   9.954
   56MYC   2H10 8559   2.237   3.678   9.960
   56MYC    C52 8560   2.069   3.618  10.081
   56MYC    H99 8561   2.091   3.510  10.080
   56MYC   0H10 8562   1.960   3.624  10.073
   56MYC    C51 8563   2.116   3.677  10.216
   56MYC    H97 8564   2.075   3.778  10.230
   56MYC    H98 8565   2.225   3.678  10.209
   56MYC    C50 8566   2.067   3.597  10.337
   56MYC    H95 8567   2.054   3.492  10.310
   56MYC    H96 8568   1.960   3.618  10.349
   56MYC    C49 8569   2.142   3.632  10.467
   56MYC    H93 8570   2.121   3.739  10.481
   56MYC    H94 8571   2.249   3.622  10.446
   56MYC    C48 8572   2.115   3.542  10.589
   56MYC    H91 8573   2.152   3.442  10.564
   56MYC    H92 8574   2.006   3.529  10.596
   56MYC    C47 8575   2.167   3.595  10.723
   56MYC    H89 8576   2.120   3.690  10.752
   56MYC    H90 8577   2.272   3.619  10.704
   56MYC    C46 8578   2.162   3.492  10.837
   56MYC    H87 8579   2.214   3.399  10.810
   56MYC    H88 8580   2.057   3.474  10.866
   56MYC    C45 8581   2.227   3.539  10.969
   56MYC    H85 8582   2.148   3.610  10.998
   56MYC    H86 8583   2.319   3.598  10.956
   56MYC    C44 8584   2.264   3.430  11.071
   56MYC    H83 8585   2.273   3.478  11.169
   56MYC    H84 8586   2.359   3.379  11.051
   56MYC    C18 8587   2.161   3.319  11.088
   56MYC    H31 8588   2.061   3.357  11.109
   56MYC    C17 8589   2.184   3.186  11.021
   56MYC    H30 8590   2.266   3.188  10.951
   56MYC    C19 8591   2.198   3.198  11.171
   56MYC    H32 8592   2.296   3.186  11.216
   56MYC    H33 8593   2.113   3.150  11.218
   56MYC    C16 8594   2.059   3.116  10.969
   56MYC    H28 8595   1.987   3.194  10.941
   56MYC    H29 8596   2.019   3.050  11.047
   56MYC    C15 8597   2.084   3.031  10.843
   56MYC    H26 8598   2.002   2.959  10.834
   56MYC    H27 8599   2.169   2.962  10.857
   56MYC    C14 8600   2.110   3.107  10.712
   56MYC    H24 8601   2.214   3.141  10.723
   56MYC    H25 8602   2.038   3.190  10.704
   56MYC    C13 8603   2.118   3.023  10.584
   56MYC    H22 8604   2.024   2.967  10.577
   56MYC    H23 8605   2.193   2.944  10.599
   56MYC    C12 8606   2.134   3.109  10.457
   56MYC    H20 8607   2.237   3.136  10.433
   56MYC    H21 8608   2.073   3.200  10.462
   56MYC    C11 8609   2.085   3.026  10.337
   56MYC    H18 8610   1.976   3.017  10.342
   56MYC    H19 8611   2.125   2.925  10.353
   56MYC    C10 8612   2.131   3.083  10.202
   56MYC    H16 8613   2.235   3.055  10.178
   56MYC    H17 8614   2.134   3.192  10.212
   56MYC     C9 8615   2.034   3.053  10.087
   56MYC    H14 8616   1.947   3.119  10.099
   56MYC    H15 8617   2.010   2.948  10.107
   56MYC     C8 8618   2.093   3.076   9.947
   56MYC    H12 8619   2.020   3.038   9.874
   56MYC    H13 8620   2.181   3.012   9.943
   56MYC     C7 8621   2.139   3.219   9.914
   56MYC    H10 8622   2.201   3.261   9.994
   56MYC    H11 8623   2.049   3.283   9.915
   56MYC     C6 8624   2.226   3.230   9.788
   56MYC     H8 8625   2.311   3.160   9.787
   56MYC     H9 8626   2.278   3.326   9.793
   56MYC     C5 8627   2.157   3.218   9.651
   56MYC     H6 8628   2.223   3.246   9.567
   56MYC     H7 8629   2.094   3.306   9.632
   56MYC     C4 8630   2.083   3.087   9.618
   56MYC     H4 8631   1.982   3.087   9.661
   56MYC     H5 8632   2.139   3.009   9.672
   56MYC     C2 8633   2.070   3.045   9.471
   56MYC     H2 8634   1.978   2.986   9.475
   56MYC     O3 8635   2.048   3.151   9.378
   56MYC     H3 8636   2.036   3.241   9.414
   56MYC     C1 8637   2.187   2.956   9.427
   56MYC     H1 8638   2.192   2.870   9.495
   56MYC    C81 8639   2.328   3.015   9.433
   56MYC    O82 8640   2.401   3.038   9.338
   56MYC    O83 8641   2.381   3.017   9.557
   56MYC   6H15 8642   2.465   3.066   9.548
   56MYC    C20 8643   2.144   2.899   9.291
   56MYC    H34 8644   2.100   2.971   9.220
   56MYC    H35 8645   2.238   2.877   9.237
   56MYC    C21 8646   2.049   2.779   9.289
   56MYC    H36 8647   2.055   2.718   9.380
   56MYC    H37 8648   1.947   2.819   9.289
   56MYC    C22 8649   2.060   2.688   9.165
   56MYC    H38 8650   2.148   2.623   9.179
   56MYC    H39 8651   1.984   2.610   9.164
   56MYC    C23 8652   2.062   2.769   9.034
   56MYC    H40 8653   1.967   2.823   9.028
   56MYC    H41 8654   2.146   2.839   9.028
   56MYC    C24 8655   2.069   2.682   8.907
   56MYC    H42 8656   2.150   2.609   8.910
   56MYC    H43 8657   1.974   2.631   8.892
   56MYC    C25 8658   2.091   2.778   8.789
   56MYC    H44 8659   2.021   2.862   8.790
   56MYC    H45 8660   2.193   2.819   8.793
   56MYC    C26 8661   2.063   2.704   8.657
   56MYC    H46 8662   2.129   2.617   8.646
   56MYC    H47 8663   1.957   2.683   8.640
   56MYC    C27 8664   2.089   2.803   8.542
   56MYC    H48 8665   2.050   2.902   8.565
   56MYC    H49 8666   2.198   2.812   8.532
   56MYC    C28 8667   2.032   2.759   8.406
   56MYC    H50 8668   2.083   2.664   8.388
   56MYC    H51 8669   1.924   2.743   8.418
   56MYC    C29 8670   2.062   2.859   8.293
   56MYC    H52 8671   2.014   2.954   8.316
   56MYC    H53 8672   2.169   2.885   8.292
   56MYC    C30 8673   2.013   2.808   8.156
   56MYC    H54 8674   2.050   2.706   8.142
   56MYC    H55 8675   1.903   2.806   8.157
   56MYC    C31 8676   2.066   2.896   8.042
   56MYC    H56 8677   2.017   2.993   8.060
   56MYC    H57 8678   2.174   2.911   8.045
   56MYC    C32 8679   2.023   2.843   7.904
   56MYC    H58 8680   2.039   2.736   7.888
   56MYC    H59 8681   1.914   2.847   7.897
   56MYC    C33 8682   2.086   2.925   7.790
   56MYC    H60 8683   2.062   3.030   7.808
   56MYC    H61 8684   2.196   2.915   7.793
   56MYC    C34 8685   2.032   2.882   7.653
   56MYC    H62 8686   2.085   2.793   7.617
   56MYC    H63 8687   1.927   2.853   7.663
   56MYC    C35 8688   2.040   2.976   7.531
   56MYC    H64 8689   1.982   3.066   7.552
   56MYC    H65 8690   2.138   3.026   7.528
   56MYC    C36 8691   2.007   2.896   7.404
   56MYC    H66 8692   2.070   2.807   7.395
   56MYC    H67 8693   1.905   2.855   7.417
   56MYC    C37 8694   2.013   2.980   7.276
   56MYC    H68 8695   1.935   3.057   7.268
   56MYC    H69 8696   2.105   3.038   7.291
   56MYC    C38 8697   2.002   2.894   7.148
   56MYC    H70 8698   2.065   2.806   7.161
   56MYC    H71 8699   1.905   2.845   7.132
   56MYC    C39 8700   2.040   2.972   7.021
   56MYC    H72 8701   1.977   3.061   7.006
   56MYC    H73 8702   2.141   3.014   7.034
   56MYC    C40 8703   2.037   2.876   6.901
   56MYC    H74 8704   2.117   2.801   6.907
   56MYC    H75 8705   1.942   2.822   6.906
   56MYC    C41 8706   2.044   2.948   6.765
   56MYC    H76 8707   1.962   3.020   6.768
   56MYC    H77 8708   2.135   3.009   6.761
   56MYC    C42 8709   2.035   2.850   6.647
   56MYC    H78 8710   2.134   2.804   6.633
   56MYC    H79 8711   1.951   2.783   6.668
   56MYC    C43 8712   1.998   2.921   6.516
   56MYC    H80 8713   1.974   2.849   6.437
   56MYC    H81 8714   2.084   2.974   6.474
   56MYC    H82 8715   1.924   3.001   6.528
   57MYC   5H15 8716   3.086   3.584   6.614
   57MYC    C80 8717   3.110   3.529   6.706
   57MYC   3H15 8718   3.209   3.482   6.711
   57MYC   4H15 8719   3.088   3.590   6.795
   57MYC    C79 8720   3.021   3.404   6.704
   57MYC   1H15 8721   3.047   3.351   6.611
   57MYC   2H15 8722   2.913   3.425   6.705
   57MYC    C78 8723   3.045   3.312   6.825
   57MYC   9H14 8724   3.152   3.289   6.825
   57MYC   0H15 8725   3.003   3.211   6.817
   57MYC    C77 8726   2.988   3.372   6.955
   57MYC   7H14 8727   2.882   3.397   6.944
   57MYC   8H14 8728   3.028   3.473   6.968
   57MYC    C76 8729   3.025   3.285   7.077
   57MYC   5H14 8730   3.132   3.277   7.096
   57MYC   6H14 8731   2.995   3.182   7.055
   57MYC    C75 8732   2.955   3.345   7.201
   57MYC   3H14 8733   2.847   3.333   7.194
   57MYC   4H14 8734   2.981   3.451   7.210
   57MYC    C74 8735   3.022   3.292   7.330
   57MYC   1H14 8736   3.129   3.302   7.308
   57MYC   2H14 8737   2.993   3.186   7.332
   57MYC    C73 8738   2.984   3.365   7.459
   57MYC   9H13 8739   2.876   3.353   7.475
   57MYC   0H14 8740   3.006   3.471   7.446
   57MYC    C72 8741   3.060   3.327   7.588
   57MYC   7H13 8742   3.169   3.337   7.580
   57MYC   8H13 8743   3.040   3.220   7.604
   57MYC    C71 8744   3.003   3.401   7.710
   57MYC   5H13 8745   2.899   3.373   7.733
   57MYC   6H13 8746   3.005   3.510   7.694
   57MYC    C70 8747   3.086   3.371   7.836
   57MYC   3H13 8748   3.195   3.374   7.824
   57MYC   4H13 8749   3.059   3.270   7.869
   57MYC    C69 8750   3.034   3.466   7.945
   57MYC   1H13 8751   2.927   3.451   7.964
   57MYC   2H13 8752   3.039   3.572   7.916
   57MYC    C68 8753   3.104   3.451   8.081
   57MYC   9H12 8754   3.208   3.484   8.073
   57MYC   0H13 8755   3.096   3.344   8.103
   57MYC    C67 8756   3.023   3.526   8.189
   57MYC   7H12 8757   2.923   3.490   8.216
   57MYC   8H12 8758   3.013   3.628   8.150
   57MYC    C66 8759   3.106   3.528   8.319
   57MYC   5H12 8760   3.192   3.592   8.293
   57MYC   6H12 8761   3.140   3.428   8.344
   57MYC    C65 8762   3.022   3.586   8.434
   57MYC   3H12 8763   2.950   3.514   8.474
   57MYC   4H12 8764   2.966   3.677   8.408
   57MYC    C64 8765   3.120   3.635   8.543
   57MYC   1H12 8766   3.169   3.726   8.507
   57MYC   2H12 8767   3.198   3.557   8.544
   57MYC    C63 8768   3.049   3.643   8.679
   57MYC   9H11 8769   2.980   3.559   8.692
   57MYC   0H12 8770   2.978   3.726   8.668
   57MYC    C62 8771   3.149   3.650   8.795
   57MYC   7H11 8772   3.223   3.729   8.776
   57MYC   8H11 8773   3.209   3.559   8.798
   57MYC    C61 8774   3.079   3.677   8.929
   57MYC   5H11 8775   2.970   3.672   8.919
   57MYC   6H11 8776   3.109   3.780   8.952
   57MYC    C60 8777   3.136   3.598   9.046
   57MYC   4H11 8778   3.244   3.608   9.054
   57MYC    C58 8779   3.058   3.626   9.172
   57MYC   1H11 8780   2.952   3.652   9.176
   57MYC    C59 8781   3.067   3.485   9.119
   57MYC   2H11 8782   3.125   3.408   9.171
   57MYC   3H11 8783   2.971   3.444   9.089
   57MYC    C57 8784   3.129   3.662   9.301
   57MYC   9H10 8785   3.121   3.770   9.320
   57MYC   0H11 8786   3.234   3.653   9.272
   57MYC    C56 8787   3.080   3.584   9.424
   57MYC   7H10 8788   3.103   3.479   9.402
   57MYC   8H10 8789   2.972   3.598   9.435
   57MYC    C55 8790   3.162   3.619   9.549
   57MYC   5H10 8791   3.177   3.727   9.564
   57MYC   6H10 8792   3.269   3.594   9.540
   57MYC    C54 8793   3.096   3.543   9.665
   57MYC   3H10 8794   3.096   3.434   9.654
   57MYC   4H10 8795   2.991   3.573   9.678
   57MYC    C53 8796   3.158   3.580   9.801
   57MYC   1H10 8797   3.142   3.687   9.814
   57MYC   2H10 8798   3.266   3.565   9.785
   57MYC    C52 8799   3.088   3.503   9.914
   57MYC    H99 8800   3.112   3.396   9.907
   57MYC   0H10 8801   2.982   3.519   9.891
   57MYC    C51 8802   3.128   3.539  10.058
   57MYC    H97 8803   3.100   3.645  10.063
   57MYC    H98 8804   3.236   3.533  10.077
   57MYC    C50 8805   3.032   3.454  10.144
   57MYC    H95 8806   3.050   3.352  10.109
   57MYC    H96 8807   2.933   3.490  10.115
   57MYC    C49 8808   3.062   3.480  10.293
   57MYC    H93 8809   3.033   3.582  10.324
   57MYC    H94 8810   3.170   3.468  10.308
   57MYC    C48 8811   3.001   3.378  10.391
   57MYC    H91 8812   3.036   3.276  10.375
   57MYC    H92 8813   2.892   3.384  10.378
   57MYC    C47 8814   3.029   3.414  10.538
   57MYC    H89 8815   2.964   3.496  10.569
   57MYC    H90 8816   3.133   3.439  10.560
   57MYC    C46 8817   2.991   3.305  10.639
   57MYC    H87 8818   3.047   3.214  10.615
   57MYC    H88 8819   2.884   3.284  10.646
   57MYC    C45 8820   3.025   3.341  10.785
   57MYC    H85 8821   2.955   3.420  10.815
   57MYC    H86 8822   3.129   3.373  10.797
   57MYC    C44 8823   3.013   3.214  10.871
   57MYC    H83 8824   3.073   3.230  10.962
   57MYC    H84 8825   3.043   3.121  10.823
   57MYC    C18 8826   2.875   3.196  10.933
   57MYC    H31 8827   2.804   3.173  10.854
   57MYC    C17 8828   2.869   3.104  11.052
   57MYC    H30 8829   2.959   3.087  11.111
   57MYC    C19 8830   2.827   3.248  11.066
   57MYC    H32 8831   2.890   3.323  11.114
   57MYC    H33 8832   2.724   3.282  11.071
   57MYC    C16 8833   2.760   2.998  11.060
   57MYC    H28 8834   2.661   3.044  11.054
   57MYC    H29 8835   2.748   2.975  11.167
   57MYC    C15 8836   2.777   2.870  10.977
   57MYC    H26 8837   2.690   2.810  11.007
   57MYC    H27 8838   2.864   2.816  11.017
   57MYC    C14 8839   2.775   2.890  10.825
   57MYC    H24 8840   2.782   2.789  10.782
   57MYC    H25 8841   2.859   2.955  10.796
   57MYC    C13 8842   2.644   2.947  10.768
   57MYC    H22 8843   2.625   3.045  10.814
   57MYC    H23 8844   2.551   2.892  10.788
   57MYC    C12 8845   2.653   2.959  10.614
   57MYC    H20 8846   2.682   2.865  10.567
   57MYC    H21 8847   2.740   3.021  10.591
   57MYC    C11 8848   2.520   3.010  10.555
   57MYC    H18 8849   2.492   3.110  10.591
   57MYC    H19 8850   2.440   2.942  10.586
   57MYC    C10 8851   2.515   3.002  10.402
   57MYC    H16 8852   2.412   3.006  10.365
   57MYC    H17 8853   2.537   2.902  10.364
   57MYC     C9 8854   2.603   3.111  10.338
   57MYC    H14 8855   2.705   3.086  10.369
   57MYC    H15 8856   2.572   3.206  10.382
   57MYC     C8 8857   2.597   3.107  10.184
   57MYC    H12 8858   2.495   3.128  10.151
   57MYC    H13 8859   2.632   3.008  10.152
   57MYC     C7 8860   2.690   3.201  10.105
   57MYC    H10 8861   2.796   3.183  10.128
   57MYC    H11 8862   2.668   3.304  10.139
   57MYC     C6 8863   2.667   3.193   9.953
   57MYC     H8 8864   2.572   3.247   9.939
   57MYC     H9 8865   2.645   3.088   9.934
   57MYC     C5 8866   2.786   3.252   9.875
   57MYC     H6 8867   2.863   3.175   9.868
   57MYC     H7 8868   2.823   3.340   9.928
   57MYC     C4 8869   2.742   3.293   9.733
   57MYC     H4 8870   2.763   3.400   9.727
   57MYC     H5 8871   2.634   3.280   9.725
   57MYC     C2 8872   2.814   3.225   9.615
   57MYC     H2 8873   2.801   3.301   9.537
   57MYC     O3 8874   2.952   3.202   9.642
   57MYC     H3 8875   2.986   3.280   9.689
   57MYC     C1 8876   2.734   3.098   9.581
   57MYC     H1 8877   2.629   3.129   9.569
   57MYC    C81 8878   2.746   2.990   9.688
   57MYC    O82 8879   2.847   2.926   9.710
   57MYC    O83 8880   2.626   2.946   9.732
   57MYC   6H15 8881   2.640   2.865   9.783
   57MYC    C20 8882   2.764   3.032   9.446
   57MYC    H34 8883   2.865   2.989   9.450
   57MYC    H35 8884   2.692   2.950   9.439
   57MYC    C21 8885   2.750   3.124   9.323
   57MYC    H36 8886   2.644   3.153   9.321
   57MYC    H37 8887   2.814   3.213   9.332
   57MYC    C22 8888   2.786   3.036   9.202
   57MYC    H38 8889   2.885   2.990   9.206
   57MYC    H39 8890   2.709   2.958   9.197
   57MYC    C23 8891   2.770   3.123   9.076
   57MYC    H40 8892   2.673   3.174   9.078
   57MYC    H41 8893   2.844   3.203   9.079
   57MYC    C24 8894   2.789   3.038   8.949
   57MYC    H42 8895   2.885   2.984   8.954
   57MYC    H43 8896   2.708   2.964   8.946
   57MYC    C25 8897   2.791   3.122   8.820
   57MYC    H44 8898   2.722   3.206   8.830
   57MYC    H45 8899   2.887   3.172   8.802
   57MYC    C26 8900   2.761   3.035   8.697
   57MYC    H46 8901   2.809   2.937   8.703
   57MYC    H47 8902   2.657   3.001   8.704
   57MYC    C27 8903   2.784   3.115   8.567
   57MYC    H48 8904   2.736   3.213   8.577
   57MYC    H49 8905   2.890   3.132   8.546
   57MYC    C28 8906   2.724   3.045   8.444
   57MYC    H50 8907   2.760   2.943   8.432
   57MYC    H51 8908   2.617   3.051   8.465
   57MYC    C29 8909   2.730   3.118   8.308
   57MYC    H52 8910   2.695   3.222   8.318
   57MYC    H53 8911   2.837   3.109   8.288
   57MYC    C30 8912   2.647   3.047   8.200
   57MYC    H54 8913   2.700   2.952   8.191
   57MYC    H55 8914   2.549   3.028   8.246
   57MYC    C31 8915   2.642   3.131   8.071
   57MYC    H56 8916   2.563   3.207   8.080
   57MYC    H57 8917   2.735   3.187   8.060
   57MYC    C32 8918   2.619   3.054   7.939
   57MYC    H58 8919   2.703   2.990   7.909
   57MYC    H59 8920   2.530   2.992   7.957
   57MYC    C33 8921   2.600   3.141   7.814
   57MYC    H60 8922   2.522   3.215   7.833
   57MYC    H61 8923   2.695   3.194   7.801
   57MYC    C34 8924   2.578   3.052   7.690
   57MYC    H62 8925   2.662   2.982   7.680
   57MYC    H63 8926   2.486   2.998   7.718
   57MYC    C35 8927   2.564   3.116   7.551
   57MYC    H64 8928   2.485   3.191   7.543
   57MYC    H65 8929   2.654   3.178   7.534
   57MYC    C36 8930   2.553   3.006   7.445
   57MYC    H66 8931   2.632   2.931   7.460
   57MYC    H67 8932   2.463   2.945   7.458
   57MYC    C37 8933   2.555   3.051   7.298
   57MYC    H68 8934   2.493   3.140   7.279
   57MYC    H69 8935   2.654   3.088   7.269
   57MYC    C38 8936   2.513   2.941   7.199
   57MYC    H70 8937   2.578   2.855   7.221
   57MYC    H71 8938   2.410   2.908   7.218
   57MYC    C39 8939   2.529   2.968   7.049
   57MYC    H72 8940   2.465   3.052   7.019
   57MYC    H73 8941   2.633   2.988   7.019
   57MYC    C40 8942   2.467   2.855   6.965
   57MYC    H74 8943   2.515   2.761   6.995
   57MYC    H75 8944   2.360   2.849   6.989
   57MYC    C41 8945   2.497   2.870   6.815
   57MYC    H76 8946   2.509   2.977   6.793
   57MYC    H77 8947   2.595   2.828   6.791
   57MYC    C42 8948   2.389   2.820   6.717
   57MYC    H78 8949   2.333   2.740   6.766
   57MYC    H79 8950   2.324   2.906   6.696
   57MYC    C43 8951   2.447   2.778   6.581
   57MYC    H80 8952   2.375   2.773   6.498
   57MYC    H81 8953   2.483   2.676   6.602
   57MYC    H82 8954   2.524   2.846   6.541
   58MYC   5H15 8955   3.612   3.587   6.651
   58MYC    C80 8956   3.586   3.518   6.733
   58MYC   3H15 8957   3.477   3.514   6.741
   58MYC   4H15 8958   3.618   3.414   6.721
   58MYC    C79 8959   3.657   3.583   6.853
   58MYC   1H15 8960   3.635   3.691   6.853
   58MYC   2H15 8961   3.766   3.571   6.841
   58MYC    C78 8962   3.628   3.514   6.987
   58MYC   9H14 8963   3.681   3.419   6.997
   58MYC   0H15 8964   3.522   3.486   6.989
   58MYC    C77 8965   3.668   3.593   7.112
   58MYC   7H14 8966   3.633   3.697   7.122
   58MYC   8H14 8967   3.778   3.592   7.106
   58MYC    C76 8968   3.629   3.510   7.236
   58MYC   5H14 8969   3.682   3.416   7.219
   58MYC   6H14 8970   3.520   3.504   7.238
   58MYC    C75 8971   3.673   3.570   7.370
   58MYC   3H14 8972   3.626   3.667   7.390
   58MYC   4H14 8973   3.780   3.597   7.365
   58MYC    C74 8974   3.644   3.481   7.492
   58MYC   1H14 8975   3.692   3.382   7.487
   58MYC   2H14 8976   3.536   3.461   7.500
   58MYC    C73 8977   3.678   3.548   7.625
   58MYC   9H13 8978   3.635   3.649   7.630
   58MYC   0H14 8979   3.785   3.570   7.627
   58MYC    C72 8980   3.627   3.469   7.747
   58MYC   7H13 8981   3.672   3.370   7.743
   58MYC   8H13 8982   3.518   3.463   7.741
   58MYC    C71 8983   3.674   3.550   7.870
   58MYC   5H13 8984   3.608   3.636   7.884
   58MYC   6H13 8985   3.774   3.594   7.859
   58MYC    C70 8986   3.675   3.470   8.001
   58MYC   3H13 8987   3.762   3.403   8.003
   58MYC   4H13 8988   3.591   3.400   8.003
   58MYC    C69 8989   3.681   3.556   8.128
   58MYC   1H13 8990   3.592   3.621   8.128
   58MYC   2H13 8991   3.761   3.630   8.119
   58MYC    C68 8992   3.677   3.478   8.261
   58MYC   9H12 8993   3.767   3.417   8.275
   58MYC   0H13 8994   3.583   3.421   8.261
   58MYC    C67 8995   3.667   3.576   8.379
   58MYC   7H12 8996   3.582   3.642   8.360
   58MYC   8H12 8997   3.757   3.636   8.400
   58MYC    C66 8998   3.647   3.498   8.511
   58MYC   5H12 8999   3.724   3.422   8.525
   58MYC   6H12 9000   3.553   3.441   8.512
   58MYC    C65 9001   3.651   3.601   8.625
   58MYC   3H12 9002   3.580   3.683   8.606
   58MYC   4H12 9003   3.751   3.646   8.631
   58MYC    C64 9004   3.626   3.538   8.763
   58MYC   1H12 9005   3.717   3.478   8.772
   58MYC   2H12 9006   3.531   3.485   8.747
   58MYC    C63 9007   3.622   3.639   8.879
   58MYC   9H11 9008   3.529   3.696   8.863
   58MYC   0H12 9009   3.706   3.708   8.869
   58MYC    C62 9010   3.627   3.560   9.011
   58MYC   7H11 9011   3.703   3.482   8.996
   58MYC   8H11 9012   3.533   3.505   9.023
   58MYC    C61 9013   3.650   3.648   9.135
   58MYC   5H11 9014   3.577   3.730   9.137
   58MYC   6H11 9015   3.751   3.689   9.122
   58MYC    C60 9016   3.659   3.558   9.257
   58MYC   4H11 9017   3.728   3.475   9.243
   58MYC    C58 9018   3.661   3.620   9.395
   58MYC   1H11 9019   3.657   3.729   9.404
   58MYC    C59 9020   3.539   3.546   9.347
   58MYC   2H11 9021   3.520   3.450   9.394
   58MYC   3H11 9022   3.453   3.605   9.315
   58MYC    C57 9023   3.741   3.550   9.503
   58MYC   9H10 9024   3.839   3.598   9.504
   58MYC   0H11 9025   3.760   3.443   9.491
   58MYC    C56 9026   3.678   3.565   9.643
   58MYC   7H10 9027   3.579   3.520   9.639
   58MYC   8H10 9028   3.670   3.675   9.648
   58MYC    C55 9029   3.767   3.508   9.755
   58MYC   5H10 9030   3.867   3.551   9.747
   58MYC   6H10 9031   3.781   3.401   9.736
   58MYC    C54 9032   3.695   3.542   9.886
   58MYC   3H10 9033   3.585   3.533   9.885
   58MYC   4H10 9034   3.723   3.647   9.894
   58MYC    C53 9035   3.749   3.458  10.004
   58MYC   1H10 9036   3.858   3.452   9.992
   58MYC   2H10 9037   3.711   3.356   9.994
   58MYC    C52 9038   3.694   3.505  10.139
   58MYC    H99 9039   3.594   3.464  10.158
   58MYC   0H10 9040   3.685   3.614  10.140
   58MYC    C51 9041   3.780   3.456  10.257
   58MYC    H97 9042   3.876   3.508  10.263
   58MYC    H98 9043   3.807   3.350  10.250
   58MYC    C50 9044   3.699   3.466  10.388
   58MYC    H95 9045   3.629   3.382  10.391
   58MYC    H96 9046   3.639   3.558  10.388
   58MYC    C49 9047   3.781   3.470  10.519
   58MYC    H93 9048   3.821   3.572  10.529
   58MYC    H94 9049   3.865   3.402  10.500
   58MYC    C48 9050   3.697   3.423  10.639
   58MYC    H91 9051   3.690   3.314  10.632
   58MYC    H92 9052   3.593   3.459  10.637
   58MYC    C47 9053   3.756   3.469  10.773
   58MYC    H89 9054   3.747   3.579  10.778
   58MYC    H90 9055   3.862   3.444  10.775
   58MYC    C46 9056   3.691   3.414  10.901
   58MYC    H87 9057   3.716   3.308  10.917
   58MYC    H88 9058   3.582   3.419  10.893
   58MYC    C45 9059   3.732   3.488  11.029
   58MYC    H85 9060   3.679   3.583  11.017
   58MYC    H86 9061   3.841   3.497  11.033
   58MYC    C44 9062   3.681   3.417  11.156
   58MYC    H83 9063   3.694   3.489  11.237
   58MYC    H84 9064   3.745   3.333  11.187
   58MYC    C18 9065   3.535   3.375  11.166
   58MYC    H31 9066   3.459   3.451  11.148
   58MYC    C17 9067   3.500   3.229  11.161
   58MYC    H30 9068   3.580   3.163  11.128
   58MYC    C19 9069   3.500   3.302  11.293
   58MYC    H32 9070   3.577   3.263  11.359
   58MYC    H33 9071   3.404   3.319  11.341
   58MYC    C16 9072   3.364   3.169  11.126
   58MYC    H28 9073   3.283   3.242  11.138
   58MYC    H29 9074   3.346   3.097  11.206
   58MYC    C15 9075   3.349   3.091  10.994
   58MYC    H26 9076   3.243   3.079  10.971
   58MYC    H27 9077   3.389   2.990  11.006
   58MYC    C14 9078   3.420   3.149  10.870
   58MYC    H24 9079   3.527   3.166  10.891
   58MYC    H25 9080   3.380   3.247  10.841
   58MYC    C13 9081   3.404   3.046  10.757
   58MYC    H22 9082   3.297   3.029  10.741
   58MYC    H23 9083   3.452   2.952  10.786
   58MYC    C12 9084   3.472   3.096  10.629
   58MYC    H20 9085   3.561   3.151  10.661
   58MYC    H21 9086   3.402   3.167  10.584
   58MYC    C11 9087   3.499   2.988  10.523
   58MYC    H18 9088   3.398   2.951  10.498
   58MYC    H19 9089   3.566   2.911  10.562
   58MYC    C10 9090   3.556   3.049  10.394
   58MYC    H16 9091   3.665   3.050  10.394
   58MYC    H17 9092   3.529   3.156  10.397
   58MYC     C9 9093   3.496   2.981  10.270
   58MYC    H14 9094   3.393   2.952  10.296
   58MYC    H15 9095   3.561   2.895  10.248
   58MYC     C8 9096   3.486   3.080  10.152
   58MYC    H12 9097   3.585   3.108  10.116
   58MYC    H13 9098   3.448   3.177  10.186
   58MYC     C7 9099   3.413   3.024  10.029
   58MYC    H10 9100   3.317   2.979  10.059
   58MYC    H11 9101   3.461   2.937   9.982
   58MYC     C6 9102   3.383   3.129   9.921
   58MYC     H8 9103   3.472   3.156   9.862
   58MYC     H9 9104   3.357   3.221   9.977
   58MYC     C5 9105   3.264   3.087   9.834
   58MYC     H6 9106   3.236   3.161   9.758
   58MYC     H7 9107   3.180   3.076   9.905
   58MYC     C4 9108   3.274   2.951   9.763
   58MYC     H4 9109   3.176   2.921   9.726
   58MYC     H5 9110   3.289   2.870   9.836
   58MYC     C2 9111   3.373   2.932   9.647
   58MYC     H2 9112   3.468   2.935   9.702
   58MYC     O3 9113   3.366   2.806   9.582
   58MYC     H3 9114   3.359   2.823   9.487
   58MYC     C1 9115   3.367   3.045   9.543
   58MYC     H1 9116   3.407   3.128   9.601
   58MYC    C81 9117   3.229   3.091   9.498
   58MYC    O82 9118   3.197   3.206   9.474
   58MYC    O83 9119   3.144   2.987   9.478
   58MYC   6H15 9120   3.058   3.032   9.474
   58MYC    C20 9121   3.453   3.011   9.420
   58MYC    H34 9122   3.540   2.963   9.465
   58MYC    H35 9123   3.389   2.944   9.362
   58MYC    C21 9124   3.484   3.125   9.321
   58MYC    H36 9125   3.401   3.150   9.254
   58MYC    H37 9126   3.517   3.215   9.375
   58MYC    C22 9127   3.600   3.082   9.229
   58MYC    H38 9128   3.695   3.126   9.260
   58MYC    H39 9129   3.621   2.975   9.237
   58MYC    C23 9130   3.577   3.124   9.083
   58MYC    H40 9131   3.474   3.098   9.057
   58MYC    H41 9132   3.575   3.234   9.091
   58MYC    C24 9133   3.674   3.085   8.970
   58MYC    H42 9134   3.775   3.087   9.011
   58MYC    H43 9135   3.657   2.979   8.945
   58MYC    C25 9136   3.660   3.171   8.843
   58MYC    H44 9137   3.553   3.185   8.822
   58MYC    H45 9138   3.702   3.268   8.873
   58MYC    C26 9139   3.737   3.117   8.721
   58MYC    H46 9140   3.802   3.193   8.676
   58MYC    H47 9141   3.800   3.030   8.742
   58MYC    C27 9142   3.638   3.079   8.610
   58MYC    H48 9143   3.582   2.985   8.620
   58MYC    H49 9144   3.567   3.162   8.609
   58MYC    C28 9145   3.710   3.076   8.474
   58MYC    H50 9146   3.770   3.166   8.452
   58MYC    H51 9147   3.790   3.002   8.488
   58MYC    C29 9148   3.620   3.050   8.352
   58MYC    H52 9149   3.575   2.950   8.357
   58MYC    H53 9150   3.532   3.114   8.347
   58MYC    C30 9151   3.702   3.055   8.221
   58MYC    H54 9152   3.744   3.154   8.203
   58MYC    H55 9153   3.792   2.993   8.232
   58MYC    C31 9154   3.633   3.013   8.090
   58MYC    H56 9155   3.607   2.907   8.103
   58MYC    H57 9156   3.544   3.076   8.077
   58MYC    C32 9157   3.720   3.022   7.964
   58MYC    H58 9158   3.758   3.125   7.962
   58MYC    H59 9159   3.797   2.946   7.980
   58MYC    C33 9160   3.645   2.995   7.832
   58MYC    H60 9161   3.605   2.894   7.836
   58MYC    H61 9162   3.559   3.063   7.822
   58MYC    C34 9163   3.737   3.034   7.715
   58MYC    H62 9164   3.794   3.126   7.728
   58MYC    H63 9165   3.809   2.953   7.701
   58MYC    C35 9166   3.667   3.044   7.578
   58MYC    H64 9167   3.608   2.954   7.556
   58MYC    H65 9168   3.596   3.128   7.588
   58MYC    C36 9169   3.759   3.082   7.461
   58MYC    H66 9170   3.797   3.184   7.472
   58MYC    H67 9171   3.848   3.018   7.473
   58MYC    C37 9172   3.689   3.075   7.325
   58MYC    H68 9173   3.649   2.973   7.316
   58MYC    H69 9174   3.606   3.147   7.320
   58MYC    C38 9175   3.780   3.113   7.207
   58MYC    H70 9176   3.832   3.206   7.233
   58MYC    H71 9177   3.857   3.035   7.198
   58MYC    C39 9178   3.718   3.124   7.067
   58MYC    H72 9179   3.680   3.027   7.032
   58MYC    H73 9180   3.628   3.186   7.070
   58MYC    C40 9181   3.820   3.160   6.958
   58MYC    H74 9182   3.858   3.262   6.971
   58MYC    H75 9183   3.912   3.105   6.983
   58MYC    C41 9184   3.774   3.133   6.814
   58MYC    H76 9185   3.766   3.026   6.789
   58MYC    H77 9186   3.672   3.173   6.808
   58MYC    C42 9187   3.864   3.199   6.708
   58MYC    H78 9188   3.850   3.306   6.730
   58MYC    H79 9189   3.966   3.163   6.725
   58MYC    C43 9190   3.836   3.180   6.558
   58MYC    H80 9191   3.919   3.234   6.511
   58MYC    H81 9192   3.740   3.221   6.523
   58MYC    H82 9193   3.849   3.075   6.533
   59MYC   5H15 9194   4.228   3.462   6.653
   59MYC    C80 9195   4.234   3.392   6.737
   59MYC   3H15 9196   4.183   3.300   6.706
   59MYC   4H15 9197   4.340   3.370   6.751
   59MYC    C79 9198   4.171   3.455   6.863
   59MYC   1H15 9199   4.063   3.448   6.847
   59MYC   2H15 9200   4.197   3.561   6.877
   59MYC    C78 9201   4.220   3.366   6.978
   59MYC   9H14 9202   4.330   3.371   6.985
   59MYC   0H15 9203   4.201   3.260   6.958
   59MYC    C77 9204   4.160   3.410   7.112
   59MYC   7H14 9205   4.053   3.385   7.122
   59MYC   8H14 9206   4.169   3.518   7.126
   59MYC    C76 9207   4.230   3.338   7.228
   59MYC   5H14 9208   4.324   3.392   7.243
   59MYC   6H14 9209   4.251   3.232   7.211
   59MYC    C75 9210   4.139   3.343   7.352
   59MYC   3H14 9211   4.071   3.257   7.359
   59MYC   4H14 9212   4.086   3.438   7.365
   59MYC    C74 9213   4.219   3.312   7.479
   59MYC   1H14 9214   4.285   3.398   7.498
   59MYC   2H14 9215   4.279   3.220   7.471
   59MYC    C73 9216   4.130   3.297   7.604
   59MYC   9H13 9217   4.069   3.206   7.600
   59MYC   0H14 9218   4.061   3.382   7.601
   59MYC    C72 9219   4.212   3.286   7.733
   59MYC   7H13 9220   4.254   3.385   7.752
   59MYC   8H13 9221   4.293   3.216   7.710
   59MYC    C71 9222   4.134   3.243   7.859
   59MYC   5H13 9223   4.121   3.134   7.854
   59MYC   6H13 9224   4.033   3.284   7.854
   59MYC    C70 9225   4.209   3.276   7.989
   59MYC   3H13 9226   4.265   3.370   7.985
   59MYC   4H13 9227   4.277   3.191   8.005
   59MYC    C69 9228   4.109   3.273   8.106
   59MYC   1H13 9229   4.032   3.196   8.090
   59MYC   2H13 9230   4.062   3.371   8.115
   59MYC    C68 9231   4.166   3.231   8.243
   59MYC   9H12 9232   4.266   3.276   8.244
   59MYC   0H13 9233   4.183   3.122   8.242
   59MYC    C67 9234   4.083   3.267   8.367
   59MYC   7H12 9235   4.076   3.173   8.423
   59MYC   8H12 9236   3.980   3.296   8.343
   59MYC    C66 9237   4.147   3.369   8.462
   59MYC   5H12 9238   4.145   3.468   8.414
   59MYC   6H12 9239   4.249   3.334   8.481
   59MYC    C65 9240   4.066   3.373   8.593
   59MYC   3H12 9241   4.039   3.269   8.614
   59MYC   4H12 9242   3.970   3.424   8.583
   59MYC    C64 9243   4.139   3.441   8.710
   59MYC   1H12 9244   4.177   3.539   8.679
   59MYC   2H12 9245   4.220   3.372   8.738
   59MYC    C63 9246   4.036   3.460   8.823
   59MYC   9H11 9247   3.980   3.367   8.838
   59MYC   0H12 9248   3.964   3.542   8.812
   59MYC    C62 9249   4.109   3.498   8.953
   59MYC   7H11 9250   4.158   3.596   8.941
   59MYC   8H11 9251   4.189   3.428   8.979
   59MYC    C61 9252   4.018   3.511   9.076
   59MYC   5H11 9253   3.948   3.428   9.090
   59MYC   6H11 9254   3.955   3.600   9.066
   59MYC    C60 9255   4.102   3.533   9.201
   59MYC   4H11 9256   4.166   3.619   9.188
   59MYC    C58 9257   4.070   3.481   9.339
   59MYC   1H11 9258   3.971   3.439   9.354
   59MYC    C59 9259   4.164   3.404   9.249
   59MYC   2H11 9260   4.271   3.408   9.267
   59MYC   3H11 9261   4.122   3.308   9.222
   59MYC    C57 9262   4.132   3.560   9.453
   59MYC   9H10 9263   4.067   3.646   9.474
   59MYC   0H11 9264   4.228   3.610   9.433
   59MYC    C56 9265   4.149   3.464   9.572
   59MYC   7H10 9266   4.197   3.369   9.544
   59MYC   8H10 9267   4.046   3.439   9.601
   59MYC    C55 9268   4.222   3.517   9.696
   59MYC   5H10 9269   4.177   3.615   9.711
   59MYC   6H10 9270   4.326   3.536   9.666
   59MYC    C54 9271   4.198   3.440   9.827
   59MYC   3H10 9272   4.250   3.345   9.812
   59MYC   4H10 9273   4.092   3.412   9.824
   59MYC    C53 9274   4.237   3.512   9.957
   59MYC   1H10 9275   4.161   3.591   9.962
   59MYC   2H10 9276   4.338   3.553   9.944
   59MYC    C52 9277   4.234   3.433  10.089
   59MYC    H99 9278   4.293   3.341  10.079
   59MYC   0H10 9279   4.130   3.401  10.099
   59MYC    C51 9280   4.277   3.518  10.210
   59MYC    H97 9281   4.219   3.610  10.220
   59MYC    H98 9282   4.382   3.550  10.206
   59MYC    C50 9283   4.259   3.434  10.337
   59MYC    H95 9284   4.332   3.352  10.332
   59MYC    H96 9285   4.155   3.398  10.331
   59MYC    C49 9286   4.266   3.517  10.466
   59MYC    H93 9287   4.179   3.585  10.470
   59MYC    H94 9288   4.358   3.576  10.477
   59MYC    C48 9289   4.248   3.421  10.585
   59MYC    H91 9290   4.327   3.345  10.577
   59MYC    H92 9291   4.162   3.355  10.571
   59MYC    C47 9292   4.248   3.490  10.722
   59MYC    H89 9293   4.172   3.568  10.708
   59MYC    H90 9294   4.339   3.552  10.732
   59MYC    C46 9295   4.232   3.413  10.854
   59MYC    H87 9296   4.322   3.352  10.874
   59MYC    H88 9297   4.141   3.352  10.850
   59MYC    C45 9298   4.213   3.512  10.970
   59MYC    H85 9299   4.112   3.555  10.960
   59MYC    H86 9300   4.286   3.592  10.954
   59MYC    C44 9301   4.215   3.456  11.113
   59MYC    H83 9302   4.184   3.530  11.187
   59MYC    H84 9303   4.317   3.423  11.136
   59MYC    C18 9304   4.123   3.336  11.135
   59MYC    H31 9305   4.023   3.332  11.094
   59MYC    C17 9306   4.193   3.203  11.147
   59MYC    H30 9307   4.301   3.210  11.149
   59MYC    C19 9308   4.124   3.263  11.267
   59MYC    H32 9309   4.182   3.317  11.342
   59MYC    H33 9310   4.039   3.214  11.313
   59MYC    C16 9311   4.136   3.075  11.088
   59MYC    H28 9312   4.049   3.093  11.024
   59MYC    H29 9313   4.095   3.012  11.167
   59MYC    C15 9314   4.236   2.984  11.014
   59MYC    H26 9315   4.190   2.885  11.021
   59MYC    H27 9316   4.332   2.990  11.068
   59MYC    C14 9317   4.256   3.032  10.870
   59MYC    H24 9318   4.294   3.135  10.874
   59MYC    H25 9319   4.156   3.045  10.827
   59MYC    C13 9320   4.338   2.931  10.787
   59MYC    H22 9321   4.291   2.833  10.800
   59MYC    H23 9322   4.436   2.935  10.837
   59MYC    C12 9323   4.338   2.970  10.638
   59MYC    H20 9324   4.386   3.067  10.618
   59MYC    H21 9325   4.241   2.981  10.588
   59MYC    C11 9326   4.423   2.867  10.562
   59MYC    H18 9327   4.375   2.769  10.571
   59MYC    H19 9328   4.524   2.852  10.602
   59MYC    C10 9329   4.435   2.911  10.415
   59MYC    H16 9330   4.487   2.827  10.368
   59MYC    H17 9331   4.507   2.994  10.404
   59MYC     C9 9332   4.312   2.925  10.324
   59MYC    H14 9333   4.278   3.029  10.324
   59MYC    H15 9334   4.232   2.873  10.379
   59MYC     C8 9335   4.328   2.857  10.187
   59MYC    H12 9336   4.352   2.754  10.215
   59MYC    H13 9337   4.409   2.899  10.126
   59MYC     C7 9338   4.194   2.880  10.115
   59MYC    H10 9339   4.110   2.887  10.185
   59MYC    H11 9340   4.175   2.789  10.057
   59MYC     C6 9341   4.193   3.005  10.026
   59MYC     H8 9342   4.292   3.015   9.980
   59MYC     H9 9343   4.170   3.091  10.090
   59MYC     C5 9344   4.074   3.001   9.928
   59MYC     H6 9345   4.044   3.100   9.892
   59MYC     H7 9346   3.990   2.960   9.985
   59MYC     C4 9347   4.094   2.906   9.808
   59MYC     H4 9348   4.021   2.825   9.817
   59MYC     H5 9349   4.191   2.854   9.814
   59MYC     C2 9350   4.094   2.985   9.677
   59MYC     H2 9351   4.016   3.063   9.671
   59MYC     O3 9352   4.220   3.052   9.671
   59MYC     H3 9353   4.286   2.986   9.700
   59MYC     C1 9354   4.070   2.901   9.550
   59MYC     H1 9355   3.971   2.857   9.563
   59MYC    C81 9356   4.186   2.802   9.536
   59MYC    O82 9357   4.165   2.682   9.542
   59MYC    O83 9358   4.302   2.855   9.494
   59MYC   6H15 9359   4.361   2.781   9.473
   59MYC    C20 9360   4.064   2.982   9.420
   59MYC    H34 9361   3.982   3.056   9.419
   59MYC    H35 9362   4.156   3.041   9.406
   59MYC    C21 9363   4.030   2.905   9.292
   59MYC    H36 9364   4.095   2.818   9.283
   59MYC    H37 9365   3.935   2.850   9.295
   59MYC    C22 9366   4.044   2.980   9.158
   59MYC    H38 9367   3.976   3.065   9.151
   59MYC    H39 9368   4.144   3.025   9.164
   59MYC    C23 9369   4.058   2.902   9.026
   59MYC    H40 9370   4.056   2.793   9.042
   59MYC    H41 9371   3.973   2.918   8.960
   59MYC    C24 9372   4.184   2.929   8.941
   59MYC    H42 9373   4.192   3.037   8.922
   59MYC    H43 9374   4.279   2.909   8.991
   59MYC    C25 9375   4.180   2.868   8.800
   59MYC    H44 9376   4.155   2.762   8.806
   59MYC    H45 9377   4.106   2.913   8.732
   59MYC    C26 9378   4.317   2.878   8.731
   59MYC    H46 9379   4.347   2.983   8.733
   59MYC    H47 9380   4.392   2.824   8.791
   59MYC    C27 9381   4.315   2.815   8.591
   59MYC    H48 9382   4.282   2.711   8.601
   59MYC    H49 9383   4.241   2.867   8.529
   59MYC    C28 9384   4.449   2.801   8.516
   59MYC    H50 9385   4.493   2.901   8.514
   59MYC    H51 9386   4.516   2.739   8.576
   59MYC    C29 9387   4.442   2.737   8.376
   59MYC    H52 9388   4.534   2.678   8.362
   59MYC    H53 9389   4.361   2.663   8.381
   59MYC    C30 9390   4.428   2.839   8.262
   59MYC    H54 9391   4.334   2.890   8.288
   59MYC    H55 9392   4.508   2.913   8.256
   59MYC    C31 9393   4.420   2.773   8.123
   59MYC    H56 9394   4.493   2.692   8.112
   59MYC    H57 9395   4.322   2.724   8.131
   59MYC    C32 9396   4.429   2.878   8.011
   59MYC    H58 9397   4.357   2.959   8.024
   59MYC    H59 9398   4.527   2.926   8.026
   59MYC    C33 9399   4.422   2.821   7.869
   59MYC    H60 9400   4.507   2.754   7.853
   59MYC    H61 9401   4.333   2.758   7.861
   59MYC    C34 9402   4.434   2.932   7.762
   59MYC    H62 9403   4.352   3.001   7.784
   59MYC    H63 9404   4.537   2.970   7.761
   59MYC    C35 9405   4.405   2.870   7.625
   59MYC    H64 9406   4.436   2.765   7.618
   59MYC    H65 9407   4.298   2.868   7.600
   59MYC    C36 9408   4.473   2.946   7.510
   59MYC    H66 9409   4.427   3.045   7.504
   59MYC    H67 9410   4.577   2.962   7.542
   59MYC    C37 9411   4.452   2.865   7.381
   59MYC    H68 9412   4.495   2.765   7.389
   59MYC    H69 9413   4.346   2.842   7.366
   59MYC    C38 9414   4.501   2.946   7.260
   59MYC    H70 9415   4.452   3.044   7.268
   59MYC    H71 9416   4.610   2.957   7.259
   59MYC    C39 9417   4.452   2.890   7.126
   59MYC    H72 9418   4.499   2.793   7.106
   59MYC    H73 9419   4.344   2.872   7.137
   59MYC    C40 9420   4.480   2.988   7.011
   59MYC    H74 9421   4.411   3.072   7.026
   59MYC    H75 9422   4.578   3.034   7.023
   59MYC    C41 9423   4.446   2.931   6.872
   59MYC    H76 9424   4.507   2.843   6.849
   59MYC    H77 9425   4.347   2.883   6.872
   59MYC    C42 9426   4.452   3.025   6.751
   59MYC    H78 9427   4.397   3.119   6.763
   59MYC    H79 9428   4.557   3.055   6.736
   59MYC    C43 9429   4.391   2.970   6.621
   59MYC    H80 9430   4.397   3.045   6.541
   59MYC    H81 9431   4.290   2.928   6.629
   59MYC    H82 9432   4.447   2.882   6.585
   60MYC   5H15 9433   5.533   3.274   6.528
   60MYC    C80 9434   5.486   3.215   6.607
   60MYC   3H15 9435   5.385   3.255   6.623
   60MYC   4H15 9436   5.474   3.107   6.592
   60MYC    C79 9437   5.568   3.248   6.733
   60MYC   1H15 9438   5.568   3.355   6.758
   60MYC   2H15 9439   5.675   3.230   6.719
   60MYC    C78 9440   5.513   3.174   6.856
   60MYC   9H14 9441   5.536   3.067   6.840
   60MYC   0H15 9442   5.406   3.192   6.868
   60MYC    C77 9443   5.582   3.209   6.989
   60MYC   7H14 9444   5.558   3.315   7.005
   60MYC   8H14 9445   5.690   3.195   6.985
   60MYC    C76 9446   5.532   3.122   7.105
   60MYC   5H14 9447   5.592   3.031   7.099
   60MYC   6H14 9448   5.428   3.097   7.079
   60MYC    C75 9449   5.540   3.193   7.242
   60MYC   3H14 9450   5.487   3.289   7.240
   60MYC   4H14 9451   5.642   3.229   7.263
   60MYC    C74 9452   5.496   3.112   7.365
   60MYC   1H14 9453   5.566   3.028   7.373
   60MYC   2H14 9454   5.390   3.085   7.355
   60MYC    C73 9455   5.522   3.190   7.495
   60MYC   9H13 9456   5.459   3.280   7.493
   60MYC   0H14 9457   5.626   3.227   7.492
   60MYC    C72 9458   5.500   3.105   7.621
   60MYC   7H13 9459   5.551   3.008   7.611
   60MYC   8H13 9460   5.393   3.084   7.633
   60MYC    C71 9461   5.536   3.177   7.752
   60MYC   5H13 9462   5.477   3.269   7.762
   60MYC   6H13 9463   5.643   3.200   7.761
   60MYC    C70 9464   5.497   3.084   7.868
   60MYC   3H13 9465   5.562   2.996   7.863
   60MYC   4H13 9466   5.391   3.056   7.862
   60MYC    C69 9467   5.525   3.153   8.003
   60MYC   1H13 9468   5.489   3.256   8.007
   60MYC   2H13 9469   5.634   3.159   8.014
   60MYC    C68 9470   5.451   3.079   8.117
   60MYC   9H12 9471   5.494   2.978   8.114
   60MYC   0H13 9472   5.344   3.067   8.101
   60MYC    C67 9473   5.490   3.142   8.252
   60MYC   7H12 9474   5.497   3.251   8.262
   60MYC   8H12 9475   5.594   3.114   8.269
   60MYC    C66 9476   5.401   3.087   8.365
   60MYC   5H12 9477   5.423   2.983   8.390
   60MYC   6H12 9478   5.297   3.092   8.330
   60MYC    C65 9479   5.416   3.174   8.491
   60MYC   3H12 9480   5.361   3.267   8.477
   60MYC   4H12 9481   5.522   3.200   8.499
   60MYC    C64 9482   5.366   3.111   8.622
   60MYC   1H12 9483   5.438   3.033   8.646
   60MYC   2H12 9484   5.276   3.049   8.610
   60MYC    C63 9485   5.350   3.211   8.737
   60MYC   9H11 9486   5.258   3.268   8.717
   60MYC   0H12 9487   5.434   3.281   8.732
   60MYC    C62 9488   5.336   3.147   8.876
   60MYC   7H11 9489   5.414   3.070   8.883
   60MYC   8H11 9490   5.237   3.099   8.885
   60MYC    C61 9491   5.343   3.253   8.987
   60MYC   5H11 9492   5.250   3.312   8.995
   60MYC   6H11 9493   5.428   3.322   8.978
   60MYC    C60 9494   5.370   3.183   9.119
   60MYC   4H11 9495   5.472   3.145   9.118
   60MYC    C58 9496   5.316   3.236   9.249
   60MYC   1H11 9497   5.245   3.318   9.244
   60MYC    C59 9498   5.269   3.102   9.197
   60MYC   2H11 9499   5.304   3.018   9.256
   60MYC   3H11 9500   5.169   3.086   9.159
   60MYC    C57 9501   5.417   3.267   9.359
   60MYC   9H10 9502   5.451   3.370   9.347
   60MYC   0H11 9503   5.502   3.199   9.343
   60MYC    C56 9504   5.357   3.257   9.500
   60MYC   7H10 9505   5.364   3.152   9.531
   60MYC   8H10 9506   5.251   3.285   9.500
   60MYC    C55 9507   5.428   3.335   9.612
   60MYC   5H10 9508   5.421   3.442   9.586
   60MYC   6H10 9509   5.537   3.325   9.610
   60MYC    C54 9510   5.366   3.318   9.752
   60MYC   3H10 9511   5.363   3.211   9.776
   60MYC   4H10 9512   5.263   3.357   9.754
   60MYC    C53 9513   5.443   3.377   9.872
   60MYC   1H10 9514   5.476   3.480   9.858
   60MYC   2H10 9515   5.532   3.314   9.881
   60MYC    C52 9516   5.364   3.378  10.004
   60MYC    H99 9517   5.313   3.281  10.001
   60MYC   0H10 9518   5.294   3.462  10.002
   60MYC    C51 9519   5.465   3.389  10.120
   60MYC    H97 9520   5.518   3.485  10.113
   60MYC    H98 9521   5.541   3.310  10.110
   60MYC    C50 9522   5.398   3.377  10.257
   60MYC    H95 9523   5.343   3.283  10.250
   60MYC    H96 9524   5.327   3.459  10.277
   60MYC    C49 9525   5.491   3.380  10.380
   60MYC    H93 9526   5.529   3.480  10.403
   60MYC    H94 9527   5.575   3.310  10.368
   60MYC    C48 9528   5.407   3.332  10.500
   60MYC    H91 9529   5.368   3.230  10.485
   60MYC    H92 9530   5.323   3.400  10.512
   60MYC    C47 9531   5.489   3.322  10.629
   60MYC    H89 9532   5.534   3.416  10.662
   60MYC    H90 9533   5.573   3.253  10.615
   60MYC    C46 9534   5.400   3.269  10.743
   60MYC    H87 9535   5.337   3.186  10.709
   60MYC    H88 9536   5.331   3.351  10.767
   60MYC    C45 9537   5.480   3.234  10.870
   60MYC    H85 9538   5.555   3.307  10.902
   60MYC    H86 9539   5.537   3.142  10.854
   60MYC    C44 9540   5.394   3.199  10.992
   60MYC    H83 9541   5.458   3.185  11.080
   60MYC    H84 9542   5.344   3.104  10.972
   60MYC    C18 9543   5.292   3.304  11.034
   60MYC    H31 9544   5.295   3.394  10.973
   60MYC    C17 9545   5.159   3.257  11.086
   60MYC    H30 9546   5.159   3.150  11.102
   60MYC    C19 9547   5.253   3.333  11.177
   60MYC    H32 9548   5.312   3.287  11.256
   60MYC    H33 9549   5.221   3.433  11.206
   60MYC    C16 9550   5.030   3.324  11.039
   60MYC    H28 9551   5.053   3.422  10.996
   60MYC    H29 9552   4.966   3.359  11.121
   60MYC    C15 9553   4.956   3.235  10.938
   60MYC    H26 9554   4.870   3.291  10.900
   60MYC    H27 9555   4.921   3.144  10.988
   60MYC    C14 9556   5.049   3.205  10.818
   60MYC    H24 9557   5.132   3.141  10.848
   60MYC    H25 9558   5.093   3.298  10.781
   60MYC    C13 9559   4.980   3.131  10.703
   60MYC    H22 9560   4.893   3.193  10.676
   60MYC    H23 9561   4.939   3.037  10.743
   60MYC    C12 9562   5.065   3.112  10.576
   60MYC    H20 9563   5.140   3.192  10.574
   60MYC    H21 9564   5.010   3.132  10.483
   60MYC    C11 9565   5.135   2.976  10.572
   60MYC    H18 9566   5.060   2.900  10.548
   60MYC    H19 9567   5.169   2.946  10.672
   60MYC    C10 9568   5.253   2.958  10.475
   60MYC    H16 9569   5.268   2.849  10.476
   60MYC    H17 9570   5.347   2.999  10.514
   60MYC     C9 9571   5.237   3.016  10.333
   60MYC    H14 9572   5.329   2.998  10.278
   60MYC    H15 9573   5.219   3.123  10.343
   60MYC     C8 9574   5.124   2.959  10.245
   60MYC    H12 9575   5.026   2.986  10.284
   60MYC    H13 9576   5.127   2.850  10.251
   60MYC     C7 9577   5.131   3.016  10.102
   60MYC    H10 9578   5.220   2.970  10.057
   60MYC    H11 9579   5.142   3.126  10.101
   60MYC     C6 9580   5.011   2.977  10.014
   60MYC     H8 9581   4.920   3.024  10.051
   60MYC     H9 9582   4.990   2.869  10.008
   60MYC     C5 9583   5.024   3.028   9.869
   60MYC     H6 9584   5.085   2.957   9.813
   60MYC     H7 9585   5.075   3.125   9.867
   60MYC     C4 9586   4.893   3.050   9.792
   60MYC     H4 9587   4.886   3.154   9.757
   60MYC     H5 9588   4.810   3.047   9.864
   60MYC     C2 9589   4.871   2.952   9.675
   60MYC     H2 9590   4.959   2.959   9.610
   60MYC     O3 9591   4.865   2.819   9.725
   60MYC     H3 9592   4.782   2.808   9.774
   60MYC     C1 9593   4.747   2.992   9.593
   60MYC     H1 9594   4.770   3.097   9.569
   60MYC    C81 9595   4.608   3.010   9.653
   60MYC    O82 9596   4.579   2.992   9.770
   60MYC    O83 9597   4.525   3.087   9.580
   60MYC   6H15 9598   4.442   3.090   9.630
   60MYC    C20 9599   4.732   2.909   9.464
   60MYC    H34 9600   4.759   2.804   9.480
   60MYC    H35 9601   4.627   2.901   9.431
   60MYC    C21 9602   4.803   2.966   9.340
   60MYC    H36 9603   4.776   3.069   9.315
   60MYC    H37 9604   4.910   2.965   9.361
   60MYC    C22 9605   4.775   2.876   9.218
   60MYC    H38 9606   4.837   2.785   9.227
   60MYC    H39 9607   4.676   2.830   9.217
   60MYC    C23 9608   4.817   2.941   9.085
   60MYC    H40 9609   4.769   3.036   9.060
   60MYC    H41 9610   4.923   2.966   9.101
   60MYC    C24 9611   4.802   2.849   8.963
   60MYC    H42 9612   4.872   2.765   8.973
   60MYC    H43 9613   4.700   2.812   8.947
   60MYC    C25 9614   4.847   2.923   8.836
   60MYC    H44 9615   4.809   3.026   8.839
   60MYC    H45 9616   4.955   2.935   8.828
   60MYC    C26 9617   4.792   2.857   8.708
   60MYC    H46 9618   4.789   2.747   8.718
   60MYC    H47 9619   4.686   2.885   8.698
   60MYC    C27 9620   4.859   2.886   8.573
   60MYC    H48 9621   4.856   2.995   8.565
   60MYC    H49 9622   4.964   2.854   8.569
   60MYC    C28 9623   4.784   2.807   8.465
   60MYC    H50 9624   4.757   2.706   8.499
   60MYC    H51 9625   4.703   2.871   8.428
   60MYC    C29 9626   4.875   2.778   8.344
   60MYC    H52 9627   4.922   2.876   8.324
   60MYC    H53 9628   4.955   2.710   8.373
   60MYC    C30 9629   4.803   2.738   8.214
   60MYC    H54 9630   4.756   2.640   8.229
   60MYC    H55 9631   4.714   2.800   8.194
   60MYC    C31 9632   4.898   2.731   8.093
   60MYC    H56 9633   4.935   2.834   8.082
   60MYC    H57 9634   4.982   2.664   8.112
   60MYC    C32 9635   4.827   2.688   7.963
   60MYC    H58 9636   4.808   2.580   7.961
   60MYC    H59 9637   4.734   2.746   7.962
   60MYC    C33 9638   4.915   2.718   7.841
   60MYC    H60 9639   4.957   2.819   7.850
   60MYC    H61 9640   4.995   2.643   7.844
   60MYC    C34 9641   4.839   2.700   7.708
   60MYC    H62 9642   4.803   2.598   7.696
   60MYC    H63 9643   4.753   2.767   7.699
   60MYC    C35 9644   4.930   2.714   7.585
   60MYC    H64 9645   4.983   2.810   7.587
   60MYC    H65 9646   5.008   2.637   7.593
   60MYC    C36 9647   4.858   2.695   7.450
   60MYC    H66 9648   4.801   2.602   7.449
   60MYC    H67 9649   4.781   2.773   7.437
   60MYC    C37 9650   4.953   2.698   7.329
   60MYC    H68 9651   5.028   2.771   7.361
   60MYC    H69 9652   5.008   2.603   7.329
   60MYC    C38 9653   4.898   2.748   7.194
   60MYC    H70 9654   4.818   2.674   7.177
   60MYC    H71 9655   4.846   2.842   7.217
   60MYC    C39 9656   4.992   2.766   7.074
   60MYC    H72 9657   5.086   2.805   7.116
   60MYC    H73 9658   5.006   2.669   7.025
   60MYC    C40 9659   4.945   2.860   6.962
   60MYC    H74 9660   4.844   2.824   6.936
   60MYC    H75 9661   4.934   2.961   7.003
   60MYC    C41 9662   5.034   2.862   6.837
   60MYC    H76 9663   5.133   2.906   6.853
   60MYC    H77 9664   5.062   2.765   6.794
   60MYC    C42 9665   4.962   2.948   6.731
   60MYC    H78 9666   4.881   2.893   6.682
   60MYC    H79 9667   4.915   3.031   6.786
   60MYC    C43 9668   5.063   3.011   6.634
   60MYC    H80 9669   5.004   3.071   6.564
   60MYC    H81 9670   5.111   2.933   6.573
   60MYC    H82 9671   5.133   3.082   6.679
   61MYC   5H15 9672  -0.039   3.147   6.632
   61MYC    C80 9673  -0.086   3.089   6.713
   61MYC   3H15 9674  -0.187   3.131   6.702
   61MYC   4H15 9675  -0.082   2.981   6.693
   61MYC    C79 9676  -0.025   3.135   6.846
   61MYC   1H15 9677   0.012   3.237   6.830
   61MYC   2H15 9678   0.064   3.073   6.860
   61MYC    C78 9679  -0.115   3.125   6.971
   61MYC   9H14 9680  -0.148   3.022   6.989
   61MYC   0H15 9681  -0.205   3.187   6.967
   61MYC    C77 9682  -0.031   3.156   7.096
   61MYC   7H14 9683   0.017   3.253   7.075
   61MYC   8H14 9684   0.050   3.084   7.111
   61MYC    C76 9685  -0.111   3.151   7.227
   61MYC   5H14 9686  -0.145   3.047   7.233
   61MYC   6H14 9687  -0.205   3.207   7.215
   61MYC    C75 9688  -0.037   3.210   7.349
   61MYC   3H14 9689  -0.060   3.317   7.349
   61MYC   4H14 9690   0.071   3.193   7.340
   61MYC    C74 9691  -0.098   3.141   7.472
   61MYC   1H14 9692  -0.067   3.036   7.480
   61MYC   2H14 9693  -0.206   3.132   7.461
   61MYC    C73 9694  -0.079   3.221   7.602
   61MYC   9H13 9695  -0.129   3.317   7.588
   61MYC   0H14 9696   0.025   3.254   7.610
   61MYC    C72 9697  -0.106   3.138   7.728
   61MYC   7H13 9698  -0.036   3.054   7.737
   61MYC   8H13 9699  -0.202   3.085   7.722
   61MYC    C71 9700  -0.105   3.225   7.855
   61MYC   5H13 9701  -0.181   3.302   7.837
   61MYC   6H13 9702  -0.008   3.275   7.842
   61MYC    C70 9703  -0.129   3.160   7.992
   61MYC   3H13 9704  -0.057   3.077   7.998
   61MYC   4H13 9705  -0.228   3.113   7.997
   61MYC    C69 9706  -0.116   3.251   8.115
   61MYC   1H13 9707  -0.191   3.331   8.114
   61MYC   2H13 9708  -0.013   3.289   8.121
   61MYC    C68 9709  -0.147   3.184   8.250
   61MYC   9H12 9710  -0.074   3.108   8.281
   61MYC   0H13 9711  -0.246   3.138   8.238
   61MYC    C67 9712  -0.167   3.273   8.374
   61MYC   7H12 9713  -0.265   3.321   8.363
   61MYC   8H12 9714  -0.088   3.349   8.378
   61MYC    C66 9715  -0.164   3.190   8.504
   61MYC   5H12 9716  -0.085   3.116   8.522
   61MYC   6H12 9717  -0.254   3.127   8.507
   61MYC    C65 9718  -0.171   3.278   8.630
   61MYC   3H12 9719  -0.269   3.327   8.626
   61MYC   4H12 9720  -0.086   3.348   8.632
   61MYC    C64 9721  -0.170   3.194   8.759
   61MYC   1H12 9722  -0.072   3.147   8.756
   61MYC   2H12 9723  -0.240   3.111   8.749
   61MYC    C63 9724  -0.199   3.270   8.890
   61MYC   9H11 9725  -0.300   3.312   8.896
   61MYC   0H12 9726  -0.138   3.359   8.911
   61MYC    C62 9727  -0.175   3.178   9.011
   61MYC   7H11 9728  -0.080   3.123   8.999
   61MYC   8H11 9729  -0.243   3.093   8.998
   61MYC    C61 9730  -0.201   3.245   9.147
   61MYC   5H11 9731  -0.299   3.293   9.136
   61MYC   6H11 9732  -0.131   3.328   9.165
   61MYC    C60 9733  -0.190   3.148   9.264
   61MYC   4H11 9734  -0.089   3.111   9.272
   61MYC    C58 9735  -0.260   3.182   9.393
   61MYC   1H11 9736  -0.331   3.264   9.397
   61MYC    C59 9737  -0.303   3.061   9.314
   61MYC   2H11 9738  -0.283   2.971   9.372
   61MYC   3H11 9739  -0.400   3.063   9.265
   61MYC    C57 9740  -0.175   3.175   9.519
   61MYC   9H10 9741  -0.133   3.276   9.524
   61MYC   0H11 9742  -0.096   3.100   9.505
   61MYC    C56 9743  -0.254   3.145   9.648
   61MYC   7H10 9744  -0.301   3.048   9.627
   61MYC   8H10 9745  -0.349   3.199   9.655
   61MYC    C55 9746  -0.165   3.150   9.773
   61MYC   5H10 9747  -0.122   3.251   9.781
   61MYC   6H10 9748  -0.084   3.077   9.763
   61MYC    C54 9749  -0.248   3.112   9.896
   61MYC   3H10 9750  -0.280   3.008   9.887
   61MYC   4H10 9751  -0.335   3.178   9.912
   61MYC    C53 9752  -0.163   3.118  10.024
   61MYC   1H10 9753  -0.106   3.212  10.028
   61MYC   2H10 9754  -0.095   3.032  10.020
   61MYC    C52 9755  -0.244   3.104  10.154
   61MYC    H99 9756  -0.307   3.015  10.150
   61MYC   0H10 9757  -0.300   3.197  10.167
   61MYC    C51 9758  -0.146   3.083  10.270
   61MYC    H97 9759  -0.060   3.151  10.263
   61MYC    H98 9760  -0.103   2.983  10.258
   61MYC    C50 9761  -0.213   3.077  10.409
   61MYC    H95 9762  -0.269   2.983  10.408
   61MYC    H96 9763  -0.281   3.163  10.421
   61MYC    C49 9764  -0.117   3.087  10.529
   61MYC    H93 9765  -0.066   3.184  10.528
   61MYC    H94 9766  -0.036   3.018  10.505
   61MYC    C48 9767  -0.174   3.061  10.669
   61MYC    H91 9768  -0.226   2.965  10.676
   61MYC    H92 9769  -0.253   3.136  10.675
   61MYC    C47 9770  -0.068   3.091  10.778
   61MYC    H89 9771  -0.019   3.185  10.750
   61MYC    H90 9772   0.014   3.019  10.771
   61MYC    C46 9773  -0.128   3.110  10.918
   61MYC    H87 9774  -0.181   3.015  10.931
   61MYC    H88 9775  -0.195   3.196  10.907
   61MYC    C45 9776  -0.029   3.133  11.033
   61MYC    H85 9777  -0.016   3.241  11.043
   61MYC    H86 9778   0.074   3.100  11.015
   61MYC    C44 9779  -0.082   3.082  11.168
   61MYC    H83 9780  -0.015   3.116  11.248
   61MYC    H84 9781  -0.084   2.973  11.178
   61MYC    C18 9782  -0.221   3.131  11.208
   61MYC    H31 9783  -0.221   3.239  11.193
   61MYC    C17 9784  -0.351   3.058  11.189
   61MYC    H30 9785  -0.350   2.954  11.159
   61MYC    C19 9786  -0.302   3.089  11.328
   61MYC    H32 9787  -0.268   3.005  11.388
   61MYC    H33 9788  -0.341   3.170  11.390
   61MYC    C16 9789  -0.468   3.129  11.123
   61MYC    H28 9790  -0.434   3.212  11.060
   61MYC    H29 9791  -0.518   3.183  11.205
   61MYC    C15 9792  -0.566   3.042  11.042
   61MYC    H26 9793  -0.648   3.107  11.010
   61MYC    H27 9794  -0.612   2.968  11.109
   61MYC    C14 9795  -0.501   2.986  10.914
   61MYC    H24 9796  -0.435   2.901  10.937
   61MYC    H25 9797  -0.446   3.064  10.860
   61MYC    C13 9798  -0.614   2.934  10.824
   61MYC    H22 9799  -0.697   3.005  10.814
   61MYC    H23 9800  -0.665   2.850  10.872
   61MYC    C12 9801  -0.569   2.898  10.681
   61MYC    H20 9802  -0.486   2.827  10.697
   61MYC    H21 9803  -0.526   2.984  10.629
   61MYC    C11 9804  -0.673   2.825  10.596
   61MYC    H18 9805  -0.761   2.890  10.593
   61MYC    H19 9806  -0.695   2.738  10.659
   61MYC    C10 9807  -0.636   2.790  10.450
   61MYC    H16 9808  -0.721   2.738  10.405
   61MYC    H17 9809  -0.550   2.722  10.452
   61MYC     C9 9810  -0.611   2.905  10.351
   61MYC    H14 9811  -0.541   2.971  10.404
   61MYC    H15 9812  -0.703   2.964  10.339
   61MYC     C8 9813  -0.550   2.851  10.221
   61MYC    H12 9814  -0.601   2.757  10.196
   61MYC    H13 9815  -0.445   2.822  10.234
   61MYC     C7 9816  -0.567   2.946  10.102
   61MYC    H10 9817  -0.503   2.913  10.020
   61MYC    H11 9818  -0.544   3.050  10.126
   61MYC     C6 9819  -0.711   2.944  10.046
   61MYC     H8 9820  -0.785   2.981  10.118
   61MYC     H9 9821  -0.730   2.838  10.027
   61MYC     C5 9822  -0.724   3.017   9.911
   61MYC     H6 9823  -0.628   3.017   9.860
   61MYC     H7 9824  -0.733   3.124   9.934
   61MYC     C4 9825  -0.837   2.975   9.815
   61MYC     H4 9826  -0.892   3.063   9.779
   61MYC     H5 9827  -0.904   2.914   9.875
   61MYC     C2 9828  -0.791   2.898   9.689
   61MYC     H2 9829  -0.709   2.957   9.646
   61MYC     O3 9830  -0.742   2.771   9.730
   61MYC     H3 9831  -0.806   2.731   9.792
   61MYC     C1 9832  -0.903   2.887   9.585
   61MYC     H1 9833  -0.933   2.989   9.558
   61MYC    C81 9834  -1.025   2.807   9.630
   61MYC    O82 9835  -1.033   2.713   9.706
   61MYC    O83 9836  -1.141   2.851   9.574
   61MYC   6H15 9837  -1.215   2.808   9.620
   61MYC    C20 9838  -0.849   2.825   9.455
   61MYC    H34 9839  -0.770   2.755   9.485
   61MYC    H35 9840  -0.924   2.769   9.398
   61MYC    C21 9841  -0.784   2.931   9.365
   61MYC    H36 9842  -0.861   3.006   9.345
   61MYC    H37 9843  -0.698   2.982   9.411
   61MYC    C22 9844  -0.730   2.875   9.233
   61MYC    H38 9845  -0.644   2.807   9.237
   61MYC    H39 9846  -0.806   2.810   9.188
   61MYC    C23 9847  -0.693   2.986   9.133
   61MYC    H40 9848  -0.781   3.050   9.118
   61MYC    H41 9849  -0.623   3.055   9.182
   61MYC    C24 9850  -0.638   2.922   9.004
   61MYC    H42 9851  -0.550   2.858   9.021
   61MYC    H43 9852  -0.711   2.847   8.972
   61MYC    C25 9853  -0.607   3.016   8.887
   61MYC    H44 9854  -0.658   3.110   8.909
   61MYC    H45 9855  -0.503   3.053   8.890
   61MYC    C26 9856  -0.651   2.956   8.752
   61MYC    H46 9857  -0.632   2.848   8.756
   61MYC    H47 9858  -0.758   2.978   8.742
   61MYC    C27 9859  -0.579   3.007   8.626
   61MYC    H48 9860  -0.595   3.115   8.617
   61MYC    H49 9861  -0.473   2.983   8.642
   61MYC    C28 9862  -0.627   2.938   8.498
   61MYC    H50 9863  -0.641   2.831   8.516
   61MYC    H51 9864  -0.728   2.966   8.464
   61MYC    C29 9865  -0.534   2.976   8.382
   61MYC    H52 9866  -0.520   3.085   8.379
   61MYC    H53 9867  -0.437   2.927   8.392
   61MYC    C30 9868  -0.590   2.935   8.245
   61MYC    H54 9869  -0.602   2.826   8.252
   61MYC    H55 9870  -0.689   2.975   8.221
   61MYC    C31 9871  -0.488   2.953   8.131
   61MYC    H56 9872  -0.440   3.051   8.138
   61MYC    H57 9873  -0.401   2.888   8.141
   61MYC    C32 9874  -0.564   2.947   7.997
   61MYC    H58 9875  -0.615   2.851   7.986
   61MYC    H59 9876  -0.645   3.020   8.008
   61MYC    C33 9877  -0.474   2.980   7.876
   61MYC    H60 9878  -0.435   3.080   7.899
   61MYC    H61 9879  -0.388   2.913   7.868
   61MYC    C34 9880  -0.555   2.978   7.746
   61MYC    H62 9881  -0.599   2.878   7.733
   61MYC    H63 9882  -0.642   3.041   7.768
   61MYC    C35 9883  -0.467   3.017   7.626
   61MYC    H64 9884  -0.432   3.118   7.651
   61MYC    H65 9885  -0.381   2.949   7.618
   61MYC    C36 9886  -0.543   3.017   7.492
   61MYC    H66 9887  -0.600   2.924   7.499
   61MYC    H67 9888  -0.611   3.103   7.502
   61MYC    C37 9889  -0.456   3.051   7.370
   61MYC    H68 9890  -0.415   3.152   7.361
   61MYC    H69 9891  -0.369   2.984   7.359
   61MYC    C38 9892  -0.533   3.008   7.244
   61MYC    H70 9893  -0.540   2.899   7.241
   61MYC    H71 9894  -0.636   3.045   7.253
   61MYC    C39 9895  -0.490   3.060   7.105
   61MYC    H72 9896  -0.498   3.170   7.101
   61MYC    H73 9897  -0.384   3.034   7.093
   61MYC    C40 9898  -0.557   2.995   6.984
   61MYC    H74 9899  -0.528   2.889   6.983
   61MYC    H75 9900  -0.666   2.994   7.001
   61MYC    C41 9901  -0.533   3.068   6.850
   61MYC    H76 9902  -0.590   3.161   6.852
   61MYC    H77 9903  -0.426   3.091   6.838
   61MYC    C42 9904  -0.586   2.997   6.725
   61MYC    H78 9905  -0.546   2.895   6.723
   61MYC    H79 9906  -0.696   2.992   6.729
   61MYC    C43 9907  -0.538   3.068   6.598
   61MYC    H80 9908  -0.595   3.028   6.513
   61MYC    H81 9909  -0.431   3.050   6.582
   61MYC    H82 9910  -0.555   3.176   6.600
   62MYC   5H15 9911   0.745   3.568   6.545
   62MYC    C80 9912   0.691   3.542   6.637
   62MYC   3H15 9913   0.591   3.588   6.636
   62MYC   4H15 9914   0.692   3.432   6.642
   62MYC    C79 9915   0.771   3.592   6.758
   62MYC   1H15 9916   0.803   3.695   6.735
   62MYC   2H15 9917   0.855   3.521   6.761
   62MYC    C78 9918   0.687   3.590   6.886
   62MYC   9H14 9919   0.653   3.488   6.906
   62MYC   0H15 9920   0.602   3.656   6.871
   62MYC    C77 9921   0.765   3.636   7.011
   62MYC   7H14 9922   0.800   3.740   7.004
   62MYC   8H14 9923   0.856   3.574   7.019
   62MYC    C76 9924   0.689   3.601   7.139
   62MYC   5H14 9925   0.670   3.495   7.157
   62MYC   6H14 9926   0.590   3.647   7.134
   62MYC    C75 9927   0.760   3.646   7.268
   62MYC   3H14 9928   0.754   3.756   7.271
   62MYC   4H14 9929   0.866   3.619   7.265
   62MYC    C74 9930   0.690   3.598   7.397
   62MYC   1H14 9931   0.683   3.490   7.381
   62MYC   2H14 9932   0.586   3.633   7.400
   62MYC    C73 9933   0.758   3.637   7.530
   62MYC   9H13 9934   0.768   3.746   7.539
   62MYC   0H14 9935   0.862   3.602   7.539
   62MYC    C72 9936   0.683   3.602   7.659
   62MYC   7H13 9937   0.664   3.494   7.651
   62MYC   8H13 9938   0.592   3.661   7.644
   62MYC    C71 9939   0.755   3.631   7.792
   62MYC   5H13 9940   0.810   3.723   7.766
   62MYC   6H13 9941   0.822   3.547   7.811
   62MYC    C70 9942   0.669   3.652   7.918
   62MYC   3H13 9943   0.618   3.557   7.940
   62MYC   4H13 9944   0.594   3.729   7.897
   62MYC    C69 9945   0.755   3.707   8.032
   62MYC   1H13 9946   0.818   3.786   7.990
   62MYC   2H13 9947   0.816   3.619   8.053
   62MYC    C68 9948   0.664   3.747   8.150
   62MYC   9H12 9949   0.572   3.688   8.161
   62MYC   0H13 9950   0.624   3.847   8.127
   62MYC    C67 9951   0.751   3.744   8.277
   62MYC   7H12 9952   0.821   3.827   8.268
   62MYC   8H12 9953   0.806   3.649   8.283
   62MYC    C66 9954   0.671   3.756   8.408
   62MYC   5H12 9955   0.600   3.673   8.416
   62MYC   6H12 9956   0.623   3.853   8.426
   62MYC    C65 9957   0.765   3.731   8.528
   62MYC   3H12 9958   0.853   3.794   8.516
   62MYC   4H12 9959   0.794   3.625   8.520
   62MYC    C64 9960   0.705   3.756   8.667
   62MYC   1H12 9961   0.617   3.692   8.683
   62MYC   2H12 9962   0.681   3.862   8.663
   62MYC    C63 9963   0.799   3.720   8.783
   62MYC   9H11 9964   0.873   3.800   8.789
   62MYC   0H12 9965   0.847   3.624   8.758
   62MYC    C62 9966   0.726   3.713   8.919
   62MYC   7H11 9967   0.630   3.663   8.909
   62MYC   8H11 9968   0.698   3.813   8.955
   62MYC    C61 9969   0.797   3.636   9.032
   62MYC   5H11 9970   0.898   3.678   9.038
   62MYC   6H11 9971   0.801   3.530   9.006
   62MYC    C60 9972   0.726   3.642   9.166
   62MYC   4H11 9973   0.626   3.600   9.158
   62MYC    C58 9974   0.798   3.640   9.299
   62MYC   1H11 9975   0.906   3.633   9.296
   62MYC    C59 9976   0.742   3.770   9.245
   62MYC   2H11 9977   0.657   3.821   9.289
   62MYC   3H11 9978   0.816   3.837   9.202
   62MYC    C57 9979   0.737   3.592   9.429
   62MYC   9H10 9980   0.743   3.483   9.437
   62MYC   0H11 9981   0.628   3.604   9.428
   62MYC    C56 9982   0.810   3.654   9.549
   62MYC   7H10 9983   0.798   3.763   9.545
   62MYC   8H10 9984   0.919   3.642   9.538
   62MYC    C55 9985   0.774   3.598   9.688
   62MYC   5H10 9986   0.841   3.517   9.716
   62MYC   6H10 9987   0.674   3.555   9.677
   62MYC    C54 9988   0.778   3.701   9.802
   62MYC   3H10 9989   0.679   3.750   9.804
   62MYC   4H10 9990   0.856   3.777   9.790
   62MYC    C53 9991   0.799   3.636   9.940
   62MYC   1H10 9992   0.891   3.578   9.955
   62MYC   2H10 9993   0.712   3.570   9.947
   62MYC    C52 9994   0.806   3.750  10.043
   62MYC    H99 9995   0.718   3.815  10.037
   62MYC   0H10 9996   0.892   3.816  10.021
   62MYC    C51 9997   0.822   3.697  10.187
   62MYC    H97 9998   0.899   3.619  10.191
   62MYC    H98 9999   0.728   3.651  10.219
   62MYC    C5010000   0.869   3.809  10.281
   62MYC    H9510001   0.819   3.903  10.255
   62MYC    H9610002   0.978   3.819  10.272
   62MYC    C4910003   0.831   3.769  10.425
   62MYC    H9310004   0.893   3.681  10.445
   62MYC    H9410005   0.726   3.740  10.430
   62MYC    C4810006   0.866   3.885  10.520
   62MYC    H9110007   0.792   3.965  10.508
   62MYC    H9210008   0.964   3.923  10.487
   62MYC    C4710009   0.885   3.839  10.666
   62MYC    H8910010   0.959   3.901  10.719
   62MYC    H9010011   0.930   3.739  10.673
   62MYC    C4610012   0.750   3.826  10.737
   62MYC    H8710013   0.679   3.767  10.678
   62MYC    H8810014   0.722   3.931  10.752
   62MYC    C4510015   0.769   3.773  10.880
   62MYC    H8510016   0.862   3.814  10.920
   62MYC    H8610017   0.792   3.666  10.870
   62MYC    C4410018   0.655   3.785  10.983
   62MYC    H8310019   0.691   3.743  11.078
   62MYC    H8410020   0.578   3.715  10.947
   62MYC    C1810021   0.591   3.923  10.995
   62MYC    H3110022   0.585   3.979  10.902
   62MYC    C1710023   0.473   3.936  11.087
   62MYC    H3010024   0.443   3.846  11.139
   62MYC    C1910025   0.605   3.998  11.125
   62MYC    H3210026   0.663   3.951  11.203
   62MYC    H3310027   0.612   4.107  11.126
   62MYC    C1610028   0.352   4.026  11.060
   62MYC    H2810029   0.386   4.124  11.024
   62MYC    H2910030   0.307   4.056  11.155
   62MYC    C1510031   0.244   3.958  10.974
   62MYC    H2610032   0.153   4.020  10.980
   62MYC    H2710033   0.219   3.857  11.010
   62MYC    C1410034   0.276   3.941  10.825
   62MYC    H2410035   0.367   3.879  10.821
   62MYC    H2510036   0.291   4.039  10.778
   62MYC    C1310037   0.155   3.879  10.755
   62MYC    H2210038   0.086   3.964  10.751
   62MYC    H2310039   0.120   3.800  10.822
   62MYC    C1210040   0.177   3.821  10.614
   62MYC    H2010041   0.264   3.755  10.608
   62MYC    H2110042   0.195   3.906  10.547
   62MYC    C1110043   0.051   3.762  10.548
   62MYC    H1810044  -0.020   3.845  10.538
   62MYC    H1910045   0.006   3.693  10.620
   62MYC    C1010046   0.082   3.685  10.418
   62MYC    H1610047  -0.008   3.639  10.376
   62MYC    H1710048   0.149   3.600  10.436
   62MYC     C910049   0.142   3.778  10.311
   62MYC    H1410050   0.241   3.811  10.345
   62MYC    H1510051   0.071   3.861  10.302
   62MYC     C810052   0.162   3.706  10.177
   62MYC    H1210053   0.073   3.659  10.134
   62MYC    H1310054   0.240   3.629  10.184
   62MYC     C710055   0.202   3.806  10.067
   62MYC    H1010056   0.305   3.838  10.087
   62MYC    H1110057   0.137   3.895  10.078
   62MYC     C610058   0.203   3.747   9.925
   62MYC     H810059   0.106   3.710   9.890
   62MYC     H910060   0.270   3.660   9.927
   62MYC     C510061   0.273   3.838   9.822
   62MYC     H610062   0.292   3.787   9.727
   62MYC     H710063   0.374   3.865   9.858
   62MYC     C410064   0.202   3.971   9.794
   62MYC     H410065   0.273   4.054   9.805
   62MYC     H510066   0.122   3.988   9.866
   62MYC     C210067   0.154   3.973   9.648
   62MYC     H210068   0.233   3.940   9.579
   62MYC     O310069   0.048   3.879   9.640
   62MYC     H310070  -0.015   3.889   9.712
   62MYC     C110071   0.110   4.117   9.615
   62MYC     H110072   0.192   4.190   9.614
   62MYC    C8110073   0.015   4.172   9.721
   62MYC    O8210074  -0.071   4.109   9.780
   62MYC    O8310075   0.051   4.292   9.770
   62MYC   6H1510076  -0.008   4.311   9.845
   62MYC    C2010077   0.050   4.121   9.473
   62MYC    H3410078  -0.021   4.040   9.454
   62MYC    H3510079  -0.014   4.209   9.456
   62MYC    C2110080   0.154   4.115   9.360
   62MYC    H3610081   0.205   4.211   9.370
   62MYC    H3710082   0.216   4.027   9.381
   62MYC    C2210083   0.086   4.096   9.223
   62MYC    H3810084   0.038   3.997   9.221
   62MYC    H3910085   0.009   4.168   9.193
   62MYC    C2310086   0.187   4.096   9.107
   62MYC    H4010087   0.263   4.174   9.109
   62MYC    H4110088   0.249   4.006   9.116
   62MYC    C2410089   0.120   4.092   8.969
   62MYC    H4210090   0.016   4.057   8.964
   62MYC    H4310091   0.122   4.199   8.944
   62MYC    C2510092   0.201   4.007   8.869
   62MYC    H4410093   0.307   4.024   8.891
   62MYC    H4510094   0.169   3.904   8.890
   62MYC    C2610095   0.168   4.046   8.724
   62MYC    H4610096   0.060   4.034   8.708
   62MYC    H4710097   0.187   4.153   8.712
   62MYC    C2710098   0.259   3.971   8.625
   62MYC    H4810099   0.363   4.004   8.636
   62MYC    H4910100   0.256   3.865   8.651
   62MYC    C2810101   0.207   3.993   8.482
   62MYC    H5010102   0.100   3.973   8.467
   62MYC    H5110103   0.221   4.097   8.450
   62MYC    C2910104   0.268   3.917   8.362
   62MYC    H5210105   0.377   3.909   8.369
   62MYC    H5310106   0.226   3.817   8.378
   62MYC    C3010107   0.216   3.969   8.227
   62MYC    H5410108   0.109   3.994   8.234
   62MYC    H5510109   0.265   4.066   8.214
   62MYC    C3110110   0.249   3.878   8.107
   62MYC    H5610111   0.348   3.834   8.120
   62MYC    H5710112   0.183   3.791   8.113
   62MYC    C3210113   0.225   3.947   7.971
   62MYC    H5810114   0.126   3.994   7.977
   62MYC    H5910115   0.297   4.028   7.954
   62MYC    C3310116   0.256   3.854   7.853
   62MYC    H6010117   0.353   3.805   7.867
   62MYC    H6110118   0.186   3.770   7.852
   62MYC    C3410119   0.235   3.925   7.718
   62MYC    H6210120   0.136   3.973   7.715
   62MYC    H6310121   0.297   4.015   7.717
   62MYC    C3510122   0.260   3.830   7.599
   62MYC    H6410123   0.359   3.784   7.598
   62MYC    H6510124   0.194   3.744   7.615
   62MYC    C3610125   0.235   3.908   7.468
   62MYC    H6610126   0.129   3.937   7.474
   62MYC    H6710127   0.297   3.997   7.478
   62MYC    C3710128   0.259   3.819   7.345
   62MYC    H6810129   0.359   3.773   7.338
   62MYC    H6910130   0.182   3.741   7.347
   62MYC    C3810131   0.242   3.897   7.214
   62MYC    H7010132   0.143   3.944   7.206
   62MYC    H7110133   0.311   3.982   7.219
   62MYC    C3910134   0.275   3.816   7.087
   62MYC    H7210135   0.372   3.765   7.094
   62MYC    H7310136   0.202   3.735   7.072
   62MYC    C4010137   0.286   3.905   6.962
   62MYC    H7410138   0.195   3.965   6.958
   62MYC    H7510139   0.375   3.968   6.973
   62MYC    C4110140   0.323   3.820   6.839
   62MYC    H7610141   0.425   3.781   6.849
   62MYC    H7710142   0.260   3.731   6.831
   62MYC    C4210143   0.313   3.901   6.708
   62MYC    H7810144   0.209   3.935   6.708
   62MYC    H7910145   0.382   3.986   6.713
   62MYC    C4310146   0.335   3.812   6.585
   62MYC    H8010147   0.301   3.856   6.490
   62MYC    H8110148   0.284   3.715   6.587
   62MYC    H8210149   0.443   3.793   6.579
   63MYC   5H1510150   1.279   4.246   6.605
   63MYC    C8010151   1.244   4.179   6.684
   63MYC   3H1510152   1.143   4.139   6.666
   63MYC   4H1510153   1.308   4.090   6.681
   63MYC    C7910154   1.231   4.245   6.823
   63MYC   1H1510155   1.156   4.324   6.813
   63MYC   2H1510156   1.323   4.298   6.850
   63MYC    C7810157   1.193   4.155   6.941
   63MYC   9H1410158   1.277   4.092   6.973
   63MYC   0H1510159   1.117   4.084   6.905
   63MYC    C7710160   1.136   4.238   7.057
   63MYC   7H1410161   1.035   4.276   7.037
   63MYC   8H1410162   1.203   4.323   7.076
   63MYC    C7610163   1.126   4.157   7.188
   63MYC   5H1410164   1.223   4.106   7.193
   63MYC   6H1410165   1.049   4.082   7.169
   63MYC    C7510166   1.093   4.231   7.319
   63MYC   3H1410167   0.986   4.253   7.322
   63MYC   4H1410168   1.145   4.328   7.324
   63MYC    C7410169   1.126   4.151   7.446
   63MYC   1H1410170   1.235   4.143   7.455
   63MYC   2H1410171   1.088   4.049   7.429
   63MYC    C7310172   1.076   4.214   7.576
   63MYC   9H1310173   0.967   4.222   7.580
   63MYC   0H1410174   1.110   4.317   7.593
   63MYC    C7210175   1.115   4.130   7.699
   63MYC   7H1310176   1.224   4.120   7.700
   63MYC   8H1310177   1.083   4.026   7.683
   63MYC    C7110178   1.067   4.190   7.832
   63MYC   5H1310179   0.962   4.164   7.848
   63MYC   6H1310180   1.066   4.300   7.837
   63MYC    C7010181   1.164   4.136   7.939
   63MYC   3H1310182   1.262   4.185   7.934
   63MYC   4H1310183   1.176   4.027   7.935
   63MYC    C6910184   1.104   4.178   8.074
   63MYC   1H1310185   1.000   4.144   8.077
   63MYC   2H1310186   1.113   4.286   8.087
   63MYC    C6810187   1.180   4.115   8.193
   63MYC   9H1210188   1.289   4.128   8.183
   63MYC   0H1310189   1.156   4.010   8.173
   63MYC    C6710190   1.129   4.166   8.329
   63MYC   7H1210191   1.024   4.134   8.325
   63MYC   8H1210192   1.123   4.275   8.326
   63MYC    C6610193   1.206   4.112   8.451
   63MYC   5H1210194   1.309   4.150   8.453
   63MYC   6H1210195   1.207   4.002   8.442
   63MYC    C6510196   1.123   4.166   8.568
   63MYC   3H1210197   1.030   4.110   8.581
   63MYC   4H1210198   1.081   4.264   8.541
   63MYC    C6410199   1.193   4.174   8.705
   63MYC   1H1210200   1.295   4.209   8.686
   63MYC   2H1210201   1.186   4.071   8.744
   63MYC    C6310202   1.119   4.265   8.804
   63MYC   9H1110203   1.019   4.223   8.821
   63MYC   0H1210204   1.105   4.365   8.762
   63MYC    C6210205   1.194   4.260   8.938
   63MYC   7H1110206   1.293   4.306   8.930
   63MYC   8H1110207   1.223   4.156   8.957
   63MYC    C6110208   1.116   4.323   9.056
   63MYC   5H1110209   1.024   4.265   9.071
   63MYC   6H1110210   1.075   4.417   9.017
   63MYC    C6010211   1.200   4.340   9.182
   63MYC   4H1110212   1.240   4.440   9.194
   63MYC    C5810213   1.149   4.277   9.309
   63MYC   1H1110214   1.057   4.220   9.312
   63MYC    C5910215   1.274   4.224   9.244
   63MYC   2H1110216   1.376   4.232   9.280
   63MYC   3H1110217   1.269   4.128   9.194
   63MYC    C5710218   1.159   4.363   9.435
   63MYC   9H1010219   1.095   4.448   9.410
   63MYC   0H1110220   1.253   4.417   9.454
   63MYC    C5610221   1.109   4.287   9.559
   63MYC   7H1010222   1.177   4.201   9.566
   63MYC   8H1010223   1.007   4.251   9.544
   63MYC    C5510224   1.101   4.373   9.687
   63MYC   5H1010225   1.009   4.430   9.703
   63MYC   6H1010226   1.168   4.459   9.683
   63MYC    C5410227   1.150   4.297   9.812
   63MYC   3H1010228   1.255   4.272   9.793
   63MYC   4H1010229   1.103   4.198   9.817
   63MYC    C5310230   1.126   4.377   9.941
   63MYC   1H1010231   1.018   4.400   9.943
   63MYC   2H1010232   1.176   4.475   9.947
   63MYC    C5210233   1.153   4.290  10.064
   63MYC    H9910234   1.256   4.252  10.064
   63MYC   0H1010235   1.085   4.205  10.049
   63MYC    C5110236   1.103   4.345  10.200
   63MYC    H9710237   0.999   4.370  10.179
   63MYC    H9810238   1.159   4.439  10.208
   63MYC    C5010239   1.109   4.247  10.318
   63MYC    H9510240   1.171   4.164  10.281
   63MYC    H9610241   1.010   4.204  10.335
   63MYC    C4910242   1.154   4.305  10.454
   63MYC    H9310243   1.077   4.379  10.483
   63MYC    H9410244   1.249   4.360  10.448
   63MYC    C4810245   1.162   4.196  10.562
   63MYC    H9110246   1.216   4.109  10.523
   63MYC    H9210247   1.066   4.151  10.588
   63MYC    C4710248   1.234   4.247  10.688
   63MYC    H8910249   1.169   4.316  10.744
   63MYC    H9010250   1.324   4.296  10.647
   63MYC    C4610251   1.283   4.137  10.784
   63MYC    H8710252   1.335   4.060  10.727
   63MYC    H8810253   1.195   4.087  10.826
   63MYC    C4510254   1.377   4.182  10.897
   63MYC    H8510255   1.316   4.254  10.952
   63MYC    H8610256   1.460   4.235  10.848
   63MYC    C4410257   1.418   4.081  11.005
   63MYC    H8310258   1.493   4.134  11.065
   63MYC    H8410259   1.481   4.001  10.965
   63MYC    C1810260   1.308   4.016  11.088
   63MYC    H3110261   1.208   4.058  11.081
   63MYC    C1710262   1.325   3.867  11.102
   63MYC    H3010263   1.419   3.823  11.069
   63MYC    C1910264   1.346   3.956  11.221
   63MYC    H3210265   1.449   3.962  11.255
   63MYC    H3310266   1.267   3.953  11.296
   63MYC    C1610267   1.205   3.773  11.094
   63MYC    H2810268   1.114   3.819  11.052
   63MYC    H2910269   1.172   3.743  11.194
   63MYC    C1510270   1.241   3.647  11.014
   63MYC    H2610271   1.191   3.564  11.065
   63MYC    H2710272   1.346   3.619  11.028
   63MYC    C1410273   1.215   3.644  10.862
   63MYC    H2410274   1.243   3.741  10.819
   63MYC    H2510275   1.107   3.631  10.854
   63MYC    C1310276   1.293   3.530  10.793
   63MYC    H2210277   1.226   3.443  10.799
   63MYC    H2310278   1.388   3.509  10.843
   63MYC    C1210279   1.329   3.565  10.648
   63MYC    H2010280   1.391   3.656  10.654
   63MYC    H2110281   1.238   3.600  10.597
   63MYC    C1110282   1.396   3.446  10.576
   63MYC    H1810283   1.321   3.368  10.560
   63MYC    H1910284   1.468   3.395  10.640
   63MYC    C1010285   1.461   3.494  10.445
   63MYC    H1610286   1.537   3.422  10.412
   63MYC    H1710287   1.525   3.581  10.462
   63MYC     C910288   1.357   3.508  10.333
   63MYC    H1410289   1.251   3.501  10.361
   63MYC    H1510290   1.372   3.431  10.256
   63MYC     C810291   1.359   3.645  10.263
   63MYC    H1210292   1.462   3.676  10.240
   63MYC    H1310293   1.335   3.708  10.350
   63MYC     C710294   1.269   3.660  10.140
   63MYC    H1010295   1.258   3.768  10.125
   63MYC    H1110296   1.167   3.626  10.162
   63MYC     C610297   1.315   3.592  10.010
   63MYC     H810298   1.332   3.485  10.022
   63MYC     H910299   1.412   3.639   9.988
   63MYC     C510300   1.216   3.633   9.899
   63MYC     H610301   1.228   3.740   9.876
   63MYC     H710302   1.119   3.611   9.946
   63MYC     C410303   1.231   3.546   9.774
   63MYC     H410304   1.130   3.568   9.739
   63MYC     H510305   1.228   3.439   9.797
   63MYC     C210306   1.332   3.596   9.669
   63MYC     H210307   1.295   3.695   9.640
   63MYC     O310308   1.460   3.608   9.731
   63MYC     H310309   1.465   3.544   9.804
   63MYC     C110310   1.335   3.497   9.551
   63MYC     H110311   1.236   3.470   9.513
   63MYC    C8110312   1.380   3.356   9.588
   63MYC    O8210313   1.446   3.333   9.688
   63MYC    O8310314   1.363   3.257   9.497
   63MYC   6H1510315   1.410   3.190   9.550
   63MYC    C2010316   1.413   3.547   9.429
   63MYC    H3410317   1.500   3.607   9.459
   63MYC    H3510318   1.462   3.463   9.379
   63MYC    C2110319   1.330   3.625   9.325
   63MYC    H3610320   1.230   3.649   9.363
   63MYC    H3710321   1.366   3.728   9.316
   63MYC    C2210322   1.322   3.564   9.184
   63MYC    H3810323   1.425   3.539   9.153
   63MYC    H3910324   1.257   3.478   9.205
   63MYC    C2310325   1.266   3.662   9.080
   63MYC    H4010326   1.172   3.699   9.124
   63MYC    H4110327   1.330   3.750   9.070
   63MYC    C2410328   1.242   3.586   8.949
   63MYC    H4210329   1.323   3.517   8.923
   63MYC    H4310330   1.141   3.542   8.950
   63MYC    C2510331   1.241   3.686   8.832
   63MYC    H4410332   1.158   3.755   8.855
   63MYC    H4510333   1.331   3.749   8.829
   63MYC    C2610334   1.214   3.629   8.692
   63MYC    H4610335   1.288   3.553   8.665
   63MYC    H4710336   1.123   3.568   8.694
   63MYC    C2710337   1.211   3.736   8.582
   63MYC    H4810338   1.127   3.804   8.600
   63MYC    H4910339   1.302   3.797   8.584
   63MYC    C2810340   1.192   3.665   8.446
   63MYC    H5010341   1.270   3.588   8.443
   63MYC    H5110342   1.097   3.610   8.443
   63MYC    C2910343   1.199   3.748   8.317
   63MYC    H5210344   1.121   3.825   8.320
   63MYC    H5310345   1.296   3.799   8.308
   63MYC    C3010346   1.181   3.661   8.191
   63MYC    H5410347   1.271   3.599   8.193
   63MYC    H5510348   1.087   3.606   8.206
   63MYC    C3110349   1.183   3.749   8.065
   63MYC    H5610350   1.093   3.811   8.062
   63MYC    H5710351   1.260   3.825   8.079
   63MYC    C3210352   1.214   3.667   7.939
   63MYC    H5810353   1.307   3.610   7.935
   63MYC    H5910354   1.125   3.605   7.921
   63MYC    C3310355   1.213   3.747   7.807
   63MYC    H6010356   1.121   3.802   7.785
   63MYC    H6110357   1.297   3.818   7.814
   63MYC    C3410358   1.245   3.659   7.685
   63MYC    H6210359   1.351   3.629   7.684
   63MYC    H6310360   1.185   3.568   7.695
   63MYC    C3510361   1.207   3.735   7.556
   63MYC    H6410362   1.113   3.788   7.577
   63MYC    H6510363   1.280   3.815   7.542
   63MYC    C3610364   1.202   3.650   7.428
   63MYC    H6610365   1.300   3.606   7.407
   63MYC    H6710366   1.130   3.566   7.434
   63MYC    C3710367   1.161   3.744   7.314
   63MYC    H6810368   1.064   3.787   7.344
   63MYC    H6910369   1.230   3.829   7.308
   63MYC    C3810370   1.156   3.674   7.177
   63MYC    H7010371   1.247   3.619   7.150
   63MYC    H7110372   1.079   3.597   7.180
   63MYC    C3910373   1.120   3.768   7.061
   63MYC    H7210374   1.022   3.817   7.069
   63MYC    H7310375   1.196   3.847   7.060
   63MYC    C4010376   1.121   3.712   6.917
   63MYC    H7410377   1.203   3.641   6.901
   63MYC    H7510378   1.030   3.653   6.904
   63MYC    C4110379   1.123   3.818   6.806
   63MYC    H7610380   1.037   3.884   6.822
   63MYC    H7710381   1.210   3.884   6.813
   63MYC    C4210382   1.113   3.750   6.668
   63MYC    H7810383   1.210   3.701   6.660
   63MYC    H7910384   1.034   3.675   6.661
   63MYC    C4310385   1.111   3.845   6.546
   63MYC    H8010386   1.163   3.811   6.456
   63MYC    H8110387   1.157   3.942   6.566
   63MYC    H8210388   1.008   3.871   6.517
   64MYC   5H1510389   1.608   3.897   6.672
   64MYC    C8010390   1.640   3.953   6.760
   64MYC   3H1510391   1.745   3.974   6.737
   64MYC   4H1510392   1.601   4.055   6.768
   64MYC    C7910393   1.606   3.868   6.884
   64MYC   1H1510394   1.653   3.769   6.878
   64MYC   2H1510395   1.498   3.846   6.880
   64MYC    C7810396   1.636   3.933   7.020
   64MYC   9H1410397   1.624   4.043   7.022
   64MYC   0H1510398   1.744   3.925   7.038
   64MYC    C7710399   1.575   3.863   7.142
   64MYC   7H1410400   1.604   3.757   7.146
   64MYC   8H1410401   1.465   3.863   7.140
   64MYC    C7610402   1.623   3.922   7.276
   64MYC   5H1410403   1.586   4.025   7.279
   64MYC   6H1410404   1.732   3.932   7.269
   64MYC    C7510405   1.581   3.841   7.399
   64MYC   3H1410406   1.613   3.737   7.397
   64MYC   4H1410407   1.472   3.852   7.410
   64MYC    C7410408   1.640   3.911   7.523
   64MYC   1H1410409   1.591   4.010   7.525
   64MYC   2H1410410   1.743   3.943   7.504
   64MYC    C7310411   1.624   3.843   7.660
   64MYC   9H1310412   1.693   3.758   7.654
   64MYC   0H1410413   1.519   3.812   7.664
   64MYC    C7210414   1.665   3.938   7.774
   64MYC   7H1310415   1.589   4.016   7.762
   64MYC   8H1310416   1.766   3.974   7.752
   64MYC    C7110417   1.662   3.876   7.915
   64MYC   5H1310418   1.750   3.813   7.932
   64MYC   6H1310419   1.569   3.819   7.930
   64MYC    C7010420   1.656   3.983   8.025
   64MYC   3H1310421   1.581   4.057   7.996
   64MYC   4H1310422   1.756   4.030   8.027
   64MYC    C6910423   1.641   3.921   8.165
   64MYC   1H1310424   1.726   3.854   8.184
   64MYC   2H1310425   1.553   3.856   8.159
   64MYC    C6810426   1.614   4.025   8.275
   64MYC   9H1210427   1.527   4.087   8.251
   64MYC   0H1310428   1.699   4.092   8.289
   64MYC    C6710429   1.607   3.942   8.404
   64MYC   7H1210430   1.684   3.864   8.408
   64MYC   8H1210431   1.512   3.887   8.400
   64MYC    C6610432   1.615   4.033   8.528
   64MYC   5H1210433   1.538   4.111   8.528
   64MYC   6H1210434   1.711   4.085   8.527
   64MYC    C6510435   1.603   3.952   8.658
   64MYC   3H1210436   1.648   3.853   8.640
   64MYC   4H1210437   1.497   3.932   8.675
   64MYC    C6410438   1.671   4.006   8.786
   64MYC   1H1210439   1.659   4.115   8.781
   64MYC   2H1210440   1.779   4.000   8.768
   64MYC    C6310441   1.630   3.944   8.921
   64MYC   9H1110442   1.643   3.835   8.918
   64MYC   0H1210443   1.522   3.956   8.931
   64MYC    C6210444   1.691   4.011   9.046
   64MYC   7H1110445   1.642   4.108   9.054
   64MYC   8H1110446   1.800   4.028   9.042
   64MYC    C6110447   1.662   3.924   9.169
   64MYC   5H1110448   1.725   3.835   9.165
   64MYC   6H1110449   1.561   3.880   9.166
   64MYC    C6010450   1.689   3.996   9.301
   64MYC   4H1110451   1.610   4.065   9.328
   64MYC    C5810452   1.754   3.920   9.414
   64MYC   1H1110453   1.783   3.817   9.394
   64MYC    C5910454   1.830   4.029   9.343
   64MYC   2H1110455   1.851   4.119   9.400
   64MYC   3H1110456   1.908   4.006   9.270
   64MYC    C5710457   1.700   3.940   9.555
   64MYC   9H1010458   1.596   3.907   9.564
   64MYC   0H1110459   1.696   4.046   9.584
   64MYC    C5610460   1.782   3.867   9.663
   64MYC   7H1010461   1.885   3.904   9.647
   64MYC   8H1010462   1.785   3.759   9.641
   64MYC    C5510463   1.724   3.904   9.800
   64MYC   5H1010464   1.620   3.868   9.804
   64MYC   6H1010465   1.729   4.014   9.806
   64MYC    C5410466   1.781   3.852   9.933
   64MYC   3H1010467   1.887   3.874   9.948
   64MYC   4H1010468   1.771   3.742   9.933
   64MYC    C5310469   1.710   3.913  10.054
   64MYC   1H1010470   1.601   3.903  10.052
   64MYC   2H1010471   1.723   4.022  10.061
   64MYC    C5210472   1.768   3.864  10.188
   64MYC    H9910473   1.876   3.848  10.180
   64MYC   0H1010474   1.714   3.772  10.211
   64MYC    C5110475   1.744   3.964  10.303
   64MYC    H9710476   1.636   3.970  10.323
   64MYC    H9810477   1.780   4.064  10.273
   64MYC    C5010478   1.816   3.915  10.429
   64MYC    H9510479   1.923   3.937  10.420
   64MYC    H9610480   1.810   3.805  10.433
   64MYC    C4910481   1.763   3.963  10.565
   64MYC    H9310482   1.705   3.877  10.600
   64MYC    H9410483   1.688   4.043  10.552
   64MYC    C4810484   1.871   3.998  10.668
   64MYC    H9110485   1.918   4.095  10.645
   64MYC    H9210486   1.955   3.928  10.676
   64MYC    C4710487   1.798   4.011  10.803
   64MYC    H8910488   1.737   3.921  10.822
   64MYC    H9010489   1.734   4.100  10.804
   64MYC    C4610490   1.897   4.039  10.917
   64MYC    H8710491   1.961   4.121  10.882
   64MYC    H8810492   1.955   3.948  10.935
   64MYC    C4510493   1.827   4.087  11.045
   64MYC    H8510494   1.763   4.010  11.089
   64MYC    H8610495   1.765   4.174  11.018
   64MYC    C4410496   1.916   4.130  11.162
   64MYC    H8310497   1.852   4.157  11.247
   64MYC    H8410498   1.968   4.223  11.137
   64MYC    C1810499   2.011   4.020  11.206
   64MYC    H3110500   1.972   3.920  11.188
   64MYC    C1710501   2.155   4.043  11.168
   64MYC    H3010502   2.193   4.138  11.131
   64MYC    C1910503   2.115   4.043  11.314
   64MYC    H3210504   2.101   4.135  11.371
   64MYC    H3310505   2.161   3.962  11.370
   64MYC    C1610506   2.248   3.934  11.116
   64MYC    H2810507   2.188   3.848  11.084
   64MYC    H2910508   2.313   3.901  11.198
   64MYC    C1510509   2.344   3.984  11.007
   64MYC    H2610510   2.410   3.899  10.987
   64MYC    H2710511   2.403   4.075  11.024
   64MYC    C1410512   2.265   4.010  10.878
   64MYC    H2410513   2.187   4.086  10.891
   64MYC    H2510514   2.220   3.912  10.859
   64MYC    C1310515   2.358   4.052  10.763
   64MYC    H2210516   2.437   3.976  10.757
   64MYC    H2310517   2.406   4.146  10.793
   64MYC    C1210518   2.283   4.072  10.630
   64MYC    H2010519   2.214   4.157  10.634
   64MYC    H2110520   2.218   3.986  10.608
   64MYC    C1110521   2.388   4.086  10.519
   64MYC    H1810522   2.416   3.996  10.463
   64MYC    H1910523   2.478   4.138  10.554
   64MYC    C1010524   2.331   4.190  10.420
   64MYC    H1610525   2.410   4.224  10.352
   64MYC    H1710526   2.301   4.283  10.471
   64MYC     C910527   2.213   4.135  10.339
   64MYC    H1410528   2.153   4.062  10.395
   64MYC    H1510529   2.263   4.080  10.258
   64MYC     C810530   2.129   4.250  10.282
   64MYC    H1210531   2.206   4.323  10.253
   64MYC    H1310532   2.064   4.295  10.358
   64MYC     C710533   2.051   4.217  10.154
   64MYC    H1010534   2.011   4.310  10.110
   64MYC    H1110535   1.956   4.166  10.175
   64MYC     C610536   2.121   4.129  10.048
   64MYC     H810537   2.107   4.024  10.079
   64MYC     H910538   2.229   4.148  10.047
   64MYC     C510539   2.058   4.153   9.910
   64MYC     H610540   2.072   4.259   9.885
   64MYC     H710541   1.950   4.137   9.904
   64MYC     C410542   2.125   4.077   9.794
   64MYC     H410543   2.040   4.027   9.745
   64MYC     H510544   2.189   4.000   9.837
   64MYC     C210545   2.203   4.158   9.689
   64MYC     H210546   2.126   4.168   9.611
   64MYC     O310547   2.257   4.282   9.732
   64MYC     H310548   2.352   4.270   9.750
   64MYC     C110549   2.325   4.080   9.637
   64MYC     H110550   2.299   3.974   9.627
   64MYC    C8110551   2.440   4.069   9.737
   64MYC    O8210552   2.548   4.122   9.719
   64MYC    O8310553   2.427   3.979   9.837
   64MYC   6H1510554   2.487   4.005   9.909
   64MYC    C2010555   2.365   4.123   9.495
   64MYC    H3410556   2.396   4.228   9.493
   64MYC    H3510557   2.449   4.062   9.460
   64MYC    C2110558   2.255   4.106   9.388
   64MYC    H3610559   2.200   4.011   9.397
   64MYC    H3710560   2.187   4.192   9.388
   64MYC    C2210561   2.323   4.097   9.251
   64MYC    H3810562   2.413   4.160   9.250
   64MYC    H3910563   2.368   3.997   9.241
   64MYC    C2310564   2.228   4.112   9.131
   64MYC    H4010565   2.122   4.107   9.161
   64MYC    H4110566   2.239   4.211   9.085
   64MYC    C2410567   2.246   4.011   9.017
   64MYC    H4210568   2.354   4.003   9.000
   64MYC    H4310569   2.207   3.911   9.042
   64MYC    C2510570   2.188   4.059   8.883
   64MYC    H4410571   2.082   4.086   8.890
   64MYC    H4510572   2.240   4.151   8.852
   64MYC    C2610573   2.210   3.966   8.762
   64MYC    H4610574   2.317   3.964   8.737
   64MYC    H4710575   2.171   3.867   8.789
   64MYC    C2710576   2.130   4.012   8.639
   64MYC    H4810577   2.021   4.016   8.649
   64MYC    H4910578   2.154   4.118   8.626
   64MYC    C2810579   2.165   3.926   8.516
   64MYC    H5010580   2.270   3.950   8.498
   64MYC    H5110581   2.152   3.818   8.529
   64MYC    C2910582   2.091   3.962   8.386
   64MYC    H5210583   1.983   3.946   8.395
   64MYC    H5310584   2.089   4.070   8.369
   64MYC    C3010585   2.154   3.891   8.265
   64MYC    H5410586   2.249   3.940   8.241
   64MYC    H5510587   2.170   3.784   8.280
   64MYC    C3110588   2.078   3.907   8.131
   64MYC    H5610589   1.977   3.865   8.134
   64MYC    H5710590   2.059   4.014   8.114
   64MYC    C3210591   2.166   3.858   8.014
   64MYC    H5810592   2.258   3.918   8.016
   64MYC    H5910593   2.195   3.753   8.016
   64MYC    C3310594   2.104   3.883   7.876
   64MYC    H6010595   2.003   3.839   7.874
   64MYC    H6110596   2.092   3.990   7.855
   64MYC    C3410597   2.182   3.817   7.761
   64MYC    H6210598   2.289   3.830   7.780
   64MYC    H6310599   2.167   3.708   7.759
   64MYC    C3510600   2.157   3.880   7.623
   64MYC    H6410601   2.049   3.892   7.605
   64MYC    H6510602   2.187   3.985   7.616
   64MYC    C3610603   2.221   3.796   7.511
   64MYC    H6610604   2.327   3.821   7.496
   64MYC    H6710605   2.218   3.687   7.525
   64MYC    C3710606   2.166   3.840   7.374
   64MYC    H6810607   2.072   3.788   7.352
   64MYC    H6910608   2.158   3.949   7.369
   64MYC    C3810609   2.258   3.803   7.257
   64MYC    H7010610   2.352   3.859   7.260
   64MYC    H7110611   2.276   3.696   7.245
   64MYC    C3910612   2.191   3.855   7.128
   64MYC    H7210613   2.083   3.835   7.119
   64MYC    H7310614   2.194   3.964   7.134
   64MYC    C4010615   2.272   3.811   7.005
   64MYC    H7410616   2.375   3.848   7.014
   64MYC    H7510617   2.275   3.701   7.000
   64MYC    C4110618   2.216   3.868   6.874
   64MYC    H7610619   2.127   3.809   6.851
   64MYC    H7710620   2.191   3.974   6.887
   64MYC    C4210621   2.324   3.849   6.766
   64MYC    H7810622   2.420   3.896   6.789
   64MYC    H7910623   2.337   3.741   6.749
   64MYC    C4310624   2.284   3.904   6.629
   64MYC    H8010625   2.367   3.948   6.572
   64MYC    H8110626   2.207   3.982   6.641
   64MYC    H8210627   2.238   3.824   6.570
   65MYC   5H1510628   2.539   3.482   6.685
   65MYC    C8010629   2.591   3.532   6.767
   65MYC   3H1510630   2.697   3.510   6.750
   65MYC   4H1510631   2.570   3.637   6.746
   65MYC    C7910632   2.541   3.491   6.907
   65MYC   1H1510633   2.558   3.384   6.922
   65MYC   2H1510634   2.434   3.514   6.914
   65MYC    C7810635   2.612   3.564   7.022
   65MYC   9H1410636   2.603   3.673   7.014
   65MYC   0H1510637   2.720   3.552   7.010
   65MYC    C7710638   2.556   3.524   7.160
   65MYC   7H1410639   2.585   3.421   7.183
   65MYC   8H1410640   2.447   3.515   7.159
   65MYC    C7610641   2.614   3.618   7.266
   65MYC   5H1410642   2.557   3.711   7.254
   65MYC   6H1410643   2.718   3.640   7.240
   65MYC    C7510644   2.597   3.563   7.409
   65MYC   3H1410645   2.657   3.472   7.414
   65MYC   4H1410646   2.491   3.540   7.426
   65MYC    C7410647   2.663   3.653   7.516
   65MYC   1H1410648   2.615   3.751   7.506
   65MYC   2H1410649   2.771   3.664   7.502
   65MYC    C7310650   2.634   3.599   7.657
   65MYC   9H1310651   2.680   3.499   7.659
   65MYC   0H1410652   2.528   3.573   7.666
   65MYC    C7210653   2.682   3.684   7.776
   65MYC   7H1310654   2.629   3.780   7.781
   65MYC   8H1310655   2.790   3.701   7.768
   65MYC    C7110656   2.662   3.604   7.905
   65MYC   5H1310657   2.724   3.514   7.898
   65MYC   6H1310658   2.558   3.567   7.904
   65MYC    C7010659   2.685   3.688   8.032
   65MYC   3H1310660   2.638   3.786   8.021
   65MYC   4H1310661   2.793   3.710   8.035
   65MYC    C6910662   2.624   3.626   8.159
   65MYC   1H1310663   2.683   3.536   8.181
   65MYC   2H1310664   2.520   3.600   8.139
   65MYC    C6810665   2.628   3.721   8.280
   65MYC   9H1210666   2.581   3.818   8.260
   65MYC   0H1310667   2.737   3.738   8.287
   65MYC    C6710668   2.568   3.652   8.404
   65MYC   7H1210669   2.602   3.548   8.403
   65MYC   8H1210670   2.460   3.662   8.390
   65MYC    C6610671   2.616   3.735   8.524
   65MYC   5H1210672   2.590   3.842   8.515
   65MYC   6H1210673   2.725   3.725   8.532
   65MYC    C6510674   2.553   3.667   8.647
   65MYC   3H1210675   2.562   3.558   8.648
   65MYC   4H1210676   2.447   3.688   8.629
   65MYC    C6410677   2.605   3.721   8.781
   65MYC   1H1210678   2.585   3.829   8.787
   65MYC   2H1210679   2.714   3.712   8.781
   65MYC    C6310680   2.543   3.649   8.902
   65MYC   9H1110681   2.575   3.544   8.903
   65MYC   0H1210682   2.434   3.649   8.895
   65MYC    C6210683   2.573   3.726   9.032
   65MYC   7H1110684   2.509   3.814   9.039
   65MYC   8H1110685   2.677   3.759   9.029
   65MYC    C6110686   2.564   3.638   9.158
   65MYC   5H1110687   2.648   3.569   9.165
   65MYC   6H1110688   2.472   3.577   9.159
   65MYC    C6010689   2.563   3.731   9.278
   65MYC   4H1110690   2.480   3.801   9.285
   65MYC    C5810691   2.627   3.686   9.407
   65MYC   1H1110692   2.663   3.584   9.402
   65MYC    C5910693   2.694   3.791   9.322
   65MYC   2H1110694   2.690   3.895   9.353
   65MYC   3H1110695   2.783   3.765   9.264
   65MYC    C5710696   2.544   3.711   9.532
   65MYC   9H1010697   2.459   3.642   9.531
   65MYC   0H1110698   2.508   3.814   9.544
   65MYC    C5610699   2.629   3.677   9.656
   65MYC   7H1010700   2.686   3.768   9.680
   65MYC   8H1010701   2.704   3.600   9.633
   65MYC    C5510702   2.547   3.636   9.779
   65MYC   5H1010703   2.513   3.533   9.763
   65MYC   6H1010704   2.454   3.694   9.781
   65MYC    C5410705   2.632   3.643   9.907
   65MYC   3H1010706   2.687   3.738   9.909
   65MYC   4H1010707   2.715   3.571   9.905
   65MYC    C5310708   2.554   3.618  10.038
   65MYC   1H1010709   2.552   3.508  10.043
   65MYC   2H1010710   2.448   3.644  10.025
   65MYC    C5210711   2.614   3.671  10.169
   65MYC    H9910712   2.569   3.769  10.190
   65MYC   0H1010713   2.724   3.675  10.166
   65MYC    C5110714   2.578   3.585  10.291
   65MYC    H9710715   2.629   3.489  10.273
   65MYC    H9810716   2.470   3.566  10.287
   65MYC    C5010717   2.609   3.656  10.424
   65MYC    H9510718   2.548   3.746  10.434
   65MYC    H9610719   2.716   3.682  10.415
   65MYC    C4910720   2.588   3.579  10.556
   65MYC    H9310721   2.627   3.476  10.557
   65MYC    H9410722   2.479   3.577  10.569
   65MYC    C4810723   2.662   3.651  10.670
   65MYC    H9110724   2.626   3.754  10.662
   65MYC    H9210725   2.769   3.653  10.646
   65MYC    C4710726   2.621   3.595  10.807
   65MYC    H8910727   2.639   3.487  10.813
   65MYC    H9010728   2.513   3.598  10.825
   65MYC    C4610729   2.705   3.669  10.913
   65MYC    H8710730   2.662   3.770  10.916
   65MYC    H8810731   2.810   3.679  10.882
   65MYC    C4510732   2.705   3.607  11.053
   65MYC    H8510733   2.752   3.508  11.042
   65MYC    H8610734   2.602   3.585  11.086
   65MYC    C4410735   2.790   3.686  11.154
   65MYC    H8310736   2.768   3.652  11.256
   65MYC    H8410737   2.755   3.790  11.166
   65MYC    C1810738   2.939   3.705  11.130
   65MYC    H3110739   2.972   3.675  11.031
   65MYC    C1710740   3.005   3.825  11.193
   65MYC    H3010741   2.943   3.892  11.252
   65MYC    C1910742   3.039   3.686  11.241
   65MYC    H3210743   3.021   3.670  11.347
   65MYC    H3310744   3.137   3.650  11.208
   65MYC    C1610745   3.105   3.911  11.117
   65MYC    H2810746   3.167   3.848  11.053
   65MYC    H2910747   3.175   3.947  11.193
   65MYC    C1510748   3.047   4.039  11.054
   65MYC    H2610749   3.130   4.104  11.024
   65MYC    H2710750   2.998   4.094  11.136
   65MYC    C1410751   2.950   4.009  10.939
   65MYC    H2410752   2.889   3.919  10.956
   65MYC    H2510753   3.010   3.981  10.851
   65MYC    C1310754   2.858   4.122  10.892
   65MYC    H2210755   2.919   4.198  10.840
   65MYC    H2310756   2.816   4.173  10.979
   65MYC    C1210757   2.747   4.069  10.800
   65MYC    H2010758   2.699   4.157  10.756
   65MYC    H2110759   2.669   4.018  10.860
   65MYC    C1110760   2.789   3.984  10.679
   65MYC    H1810761   2.695   3.956  10.631
   65MYC    H1910762   2.827   3.887  10.715
   65MYC    C1010763   2.882   4.058  10.580
   65MYC    H1610764   2.983   4.078  10.617
   65MYC    H1710765   2.834   4.156  10.571
   65MYC     C910766   2.888   3.984  10.446
   65MYC    H1410767   2.790   3.936  10.434
   65MYC    H1510768   2.959   3.900  10.449
   65MYC     C810769   2.905   4.071  10.320
   65MYC    H1210770   2.984   4.140  10.350
   65MYC    H1310771   2.814   4.130  10.306
   65MYC     C710772   2.932   3.988  10.193
   65MYC    H1010773   2.880   3.892  10.188
   65MYC    H1110774   3.034   3.952  10.213
   65MYC     C610775   2.924   4.069  10.063
   65MYC     H810776   2.958   4.172  10.079
   65MYC     H910777   2.820   4.072  10.030
   65MYC     C510778   3.011   4.001   9.956
   65MYC     H610779   2.945   3.941   9.891
   65MYC     H710780   3.074   3.921   9.996
   65MYC     C410781   3.107   4.085   9.870
   65MYC     H410782   3.184   4.013   9.839
   65MYC     H510783   3.162   4.162   9.923
   65MYC     C210784   3.046   4.136   9.738
   65MYC     H210785   2.992   4.053   9.690
   65MYC     O310786   2.939   4.225   9.769
   65MYC     H310787   2.853   4.179   9.767
   65MYC     C110788   3.151   4.193   9.643
   65MYC     H110789   3.217   4.108   9.619
   65MYC    C8110790   3.228   4.305   9.713
   65MYC    O8210791   3.349   4.300   9.726
   65MYC    O8310792   3.162   4.417   9.747
   65MYC   6H1510793   3.228   4.470   9.795
   65MYC    C2010794   3.097   4.245   9.509
   65MYC    H3410795   3.011   4.307   9.538
   65MYC    H3510796   3.178   4.304   9.463
   65MYC    C2110797   3.056   4.137   9.407
   65MYC    H3610798   3.139   4.072   9.375
   65MYC    H3710799   2.977   4.078   9.456
   65MYC    C2210800   2.995   4.191   9.277
   65MYC    H3810801   2.898   4.229   9.311
   65MYC    H3910802   3.057   4.271   9.235
   65MYC    C2310803   2.969   4.084   9.171
   65MYC    H4010804   3.054   4.015   9.170
   65MYC    H4110805   2.885   4.023   9.206
   65MYC    C2410806   2.949   4.142   9.030
   65MYC    H4210807   2.855   4.198   9.026
   65MYC    H4310808   3.027   4.218   9.018
   65MYC    C2510809   2.966   4.047   8.910
   65MYC    H4410810   3.055   3.987   8.929
   65MYC    H4510811   2.880   3.979   8.918
   65MYC    C2610812   2.963   4.132   8.782
   65MYC    H4610813   2.875   4.197   8.785
   65MYC    H4710814   3.040   4.211   8.786
   65MYC    C2710815   2.978   4.047   8.655
   65MYC    H4810816   3.077   3.999   8.659
   65MYC    H4910817   2.897   3.973   8.660
   65MYC    C2810818   2.962   4.133   8.528
   65MYC    H5010819   2.866   4.185   8.526
   65MYC    H5110820   3.045   4.204   8.524
   65MYC    C2910821   2.958   4.043   8.403
   65MYC    H5210822   3.063   4.014   8.391
   65MYC    H5310823   2.896   3.956   8.428
   65MYC    C3010824   2.894   4.106   8.278
   65MYC    H5410825   2.786   4.115   8.288
   65MYC    H5510826   2.933   4.207   8.260
   65MYC    C3110827   2.936   4.023   8.156
   65MYC    H5610828   3.045   4.007   8.160
   65MYC    H5710829   2.883   3.927   8.157
   65MYC    C3210830   2.904   4.102   8.027
   65MYC    H5810831   2.797   4.125   8.033
   65MYC    H5910832   2.947   4.203   8.035
   65MYC    C3310833   2.931   4.026   7.896
   65MYC    H6010834   3.041   4.021   7.896
   65MYC    H6110835   2.889   3.925   7.908
   65MYC    C3410836   2.869   4.093   7.773
   65MYC    H6210837   2.760   4.086   7.766
   65MYC    H6310838   2.896   4.199   7.780
   65MYC    C3510839   2.939   4.053   7.642
   65MYC    H6410840   3.047   4.074   7.636
   65MYC    H6510841   2.934   3.944   7.638
   65MYC    C3610842   2.847   4.109   7.532
   65MYC    H6610843   2.745   4.074   7.549
   65MYC    H6710844   2.840   4.218   7.540
   65MYC    C3710845   2.898   4.074   7.391
   65MYC    H6810846   2.995   4.115   7.361
   65MYC    H6910847   2.916   3.966   7.387
   65MYC    C3810848   2.803   4.123   7.280
   65MYC    H7010849   2.711   4.065   7.288
   65MYC    H7110850   2.780   4.230   7.292
   65MYC    C3910851   2.858   4.106   7.137
   65MYC    H7210852   2.953   4.160   7.130
   65MYC    H7310853   2.874   3.999   7.124
   65MYC    C4010854   2.760   4.156   7.030
   65MYC    H7410855   2.660   4.114   7.043
   65MYC    H7510856   2.744   4.260   7.062
   65MYC    C4110857   2.808   4.147   6.883
   65MYC    H7610858   2.903   4.199   6.869
   65MYC    H7710859   2.838   4.045   6.858
   65MYC    C4210860   2.703   4.195   6.781
   65MYC    H7810861   2.620   4.126   6.795
   65MYC    H7910862   2.673   4.297   6.806
   65MYC    C4310863   2.750   4.181   6.635
   65MYC    H8010864   2.665   4.187   6.565
   65MYC    H8110865   2.787   4.078   6.630
   65MYC    H8210866   2.829   4.252   6.606
   66MYC   5H1510867   3.417   4.002   6.649
   66MYC    C8010868   3.468   3.951   6.733
   66MYC   3H1510869   3.474   3.844   6.710
   66MYC   4H1510870   3.572   3.985   6.738
   66MYC    C7910871   3.402   3.989   6.866
   66MYC   1H1510872   3.297   3.955   6.871
   66MYC   2H1510873   3.404   4.098   6.873
   66MYC    C7810874   3.473   3.937   6.993
   66MYC   9H1410875   3.572   3.982   6.996
   66MYC   0H1510876   3.480   3.827   6.993
   66MYC    C7710877   3.389   3.971   7.117
   66MYC   7H1410878   3.304   3.905   7.135
   66MYC   8H1410879   3.362   4.077   7.106
   66MYC    C7610880   3.473   3.959   7.246
   66MYC   5H1410881   3.580   3.976   7.228
   66MYC   6H1410882   3.472   3.854   7.279
   66MYC    C7510883   3.430   4.049   7.363
   66MYC   3H1410884   3.323   4.034   7.378
   66MYC   4H1410885   3.445   4.152   7.330
   66MYC    C7410886   3.514   4.010   7.486
   66MYC   1H1410887   3.612   4.059   7.483
   66MYC   2H1410888   3.529   3.901   7.483
   66MYC    C7310889   3.449   4.052   7.619
   66MYC   9H1310890   3.360   3.988   7.628
   66MYC   0H1410891   3.428   4.160   7.621
   66MYC    C7210892   3.548   4.019   7.732
   66MYC   7H1310893   3.635   4.085   7.734
   66MYC   8H1310894   3.584   3.917   7.714
   66MYC    C7110895   3.476   4.030   7.868
   66MYC   5H1310896   3.397   3.953   7.859
   66MYC   6H1310897   3.425   4.125   7.886
   66MYC    C7010898   3.565   3.987   7.986
   66MYC   3H1310899   3.636   4.069   8.005
   66MYC   4H1310900   3.618   3.893   7.969
   66MYC    C6910901   3.476   3.978   8.111
   66MYC   1H1310902   3.430   3.879   8.106
   66MYC   2H1310903   3.394   4.052   8.108
   66MYC    C6810904   3.565   3.991   8.236
   66MYC   9H1210905   3.624   4.082   8.216
   66MYC   0H1310906   3.645   3.916   8.239
   66MYC    C6710907   3.475   3.987   8.360
   66MYC   7H1210908   3.434   3.887   8.378
   66MYC   8H1210909   3.388   4.053   8.345
   66MYC    C6610910   3.541   4.037   8.490
   66MYC   5H1210911   3.545   4.147   8.493
   66MYC   6H1210912   3.640   3.990   8.501
   66MYC    C6510913   3.454   3.981   8.603
   66MYC   3H1210914   3.457   3.871   8.602
   66MYC   4H1210915   3.353   4.018   8.582
   66MYC    C6410916   3.498   4.029   8.742
   66MYC   1H1210917   3.492   4.139   8.740
   66MYC   2H1210918   3.602   4.000   8.764
   66MYC    C6310919   3.395   3.990   8.849
   66MYC   9H1110920   3.376   3.883   8.837
   66MYC   0H1210921   3.296   4.036   8.840
   66MYC    C6210922   3.454   4.002   8.991
   66MYC   7H1110923   3.480   4.107   9.009
   66MYC   8H1110924   3.540   3.938   9.012
   66MYC    C6110925   3.350   3.970   9.100
   66MYC   5H1110926   3.327   3.864   9.116
   66MYC   6H1110927   3.256   4.021   9.077
   66MYC    C6010928   3.399   4.018   9.236
   66MYC   4H1110929   3.354   4.114   9.261
   66MYC    C5810930   3.446   3.931   9.350
   66MYC   1H1110931   3.452   3.825   9.327
   66MYC    C5910932   3.544   4.022   9.279
   66MYC   2H1110933   3.575   4.110   9.335
   66MYC   3H1110934   3.618   3.981   9.211
   66MYC    C5710935   3.394   3.949   9.492
   66MYC   9H1010936   3.287   3.927   9.496
   66MYC   0H1110937   3.414   4.055   9.509
   66MYC    C5610938   3.466   3.866   9.599
   66MYC   7H1010939   3.570   3.897   9.611
   66MYC   8H1010940   3.472   3.761   9.566
   66MYC    C5510941   3.396   3.879   9.735
   66MYC   5H1010942   3.296   3.833   9.727
   66MYC   6H1010943   3.381   3.985   9.760
   66MYC    C5410944   3.471   3.808   9.850
   66MYC   3H1010945   3.577   3.837   9.846
   66MYC   4H1010946   3.464   3.699   9.840
   66MYC    C5310947   3.406   3.846   9.984
   66MYC   1H1010948   3.304   3.806   9.973
   66MYC   2H1010949   3.389   3.954   9.996
   66MYC    C5210950   3.471   3.786  10.109
   66MYC    H9910951   3.579   3.805  10.112
   66MYC   0H1010952   3.457   3.677  10.102
   66MYC    C5110953   3.409   3.835  10.241
   66MYC    H9710954   3.304   3.806  10.232
   66MYC    H9810955   3.412   3.944  10.241
   66MYC    C5010956   3.477   3.787  10.370
   66MYC    H9510957   3.586   3.790  10.361
   66MYC    H9610958   3.450   3.682  10.383
   66MYC    C4910959   3.421   3.864  10.491
   66MYC    H9310960   3.313   3.849  10.501
   66MYC    H9410961   3.437   3.970  10.465
   66MYC    C4810962   3.485   3.824  10.625
   66MYC    H9110963   3.591   3.853  10.623
   66MYC    H9210964   3.482   3.717  10.644
   66MYC    C4710965   3.424   3.902  10.743
   66MYC    H8910966   3.340   3.844  10.784
   66MYC    H9010967   3.389   3.996  10.698
   66MYC    C4610968   3.519   3.924  10.862
   66MYC    H8710969   3.605   3.984  10.831
   66MYC    H8810970   3.557   3.827  10.897
   66MYC    C4510971   3.442   3.992  10.976
   66MYC    H8510972   3.380   3.927  11.040
   66MYC    H8610973   3.374   4.071  10.943
   66MYC    C4410974   3.536   4.054  11.081
   66MYC    H8310975   3.483   4.138  11.127
   66MYC    H8410976   3.623   4.097  11.028
   66MYC    C1810977   3.576   3.958  11.192
   66MYC    H3110978   3.559   3.855  11.162
   66MYC    C1710979   3.699   3.991  11.272
   66MYC    H3010980   3.741   4.090  11.255
   66MYC    C1910981   3.564   3.995  11.337
   66MYC    H3210982   3.545   4.096  11.375
   66MYC    H3310983   3.543   3.914  11.407
   66MYC    C1610984   3.797   3.877  11.293
   66MYC    H2810985   3.743   3.783  11.272
   66MYC    H2910986   3.832   3.865  11.396
   66MYC    C1510987   3.915   3.883  11.195
   66MYC    H2610988   3.967   3.787  11.203
   66MYC    H2710989   3.976   3.969  11.228
   66MYC    C1410990   3.867   3.904  11.051
   66MYC    H2410991   3.862   4.011  11.027
   66MYC    H2510992   3.769   3.856  11.038
   66MYC    C1310993   3.954   3.850  10.936
   66MYC    H2210994   3.975   3.744  10.958
   66MYC    H2310995   4.056   3.890  10.934
   66MYC    C1210996   3.897   3.863  10.794
   66MYC    H2010997   3.790   3.839  10.803
   66MYC    H2110998   3.936   3.784  10.728
   66MYC    C1110999   3.927   3.998  10.726
   66MYC    H1811000   4.035   4.016  10.721
   66MYC    H1911001   3.901   4.078  10.796
   66MYC    C1011002   3.860   4.033  10.592
   66MYC    H1611003   3.892   4.137  10.581
   66MYC    H1711004   3.751   4.025  10.597
   66MYC     C911005   3.908   3.945  10.475
   66MYC    H1411006   3.844   3.855  10.472
   66MYC    H1511007   4.012   3.915  10.494
   66MYC     C811008   3.908   4.005  10.334
   66MYC    H1211009   3.961   4.101  10.333
   66MYC    H1311010   3.806   4.020  10.297
   66MYC     C711011   3.969   3.903  10.236
   66MYC    H1011012   3.905   3.814  10.249
   66MYC    H1111013   4.070   3.869  10.262
   66MYC     C611014   3.977   3.946  10.089
   66MYC     H811015   4.069   4.006  10.082
   66MYC     H911016   3.895   4.016  10.074
   66MYC     C511017   3.961   3.827   9.993
   66MYC     H611018   3.854   3.808   9.978
   66MYC     H711019   3.999   3.737  10.042
   66MYC     C411020   4.025   3.849   9.855
   66MYC     H411021   4.030   3.751   9.806
   66MYC     H511022   4.126   3.887   9.875
   66MYC     C211023   3.946   3.943   9.762
   66MYC     H211024   3.843   3.905   9.758
   66MYC     O311025   3.950   4.075   9.815
   66MYC     H311026   3.938   4.073   9.912
   66MYC     C111027   3.990   3.935   9.615
   66MYC     H111028   3.958   3.839   9.572
   66MYC    C8111029   4.141   3.946   9.595
   66MYC    O8211030   4.222   3.858   9.578
   66MYC    O8311031   4.192   4.071   9.591
   66MYC   6H1511032   4.289   4.057   9.588
   66MYC    C2011033   3.912   4.041   9.535
   66MYC    H3411034   3.820   4.058   9.592
   66MYC    H3511035   3.965   4.137   9.532
   66MYC    C2111036   3.873   4.007   9.391
   66MYC    H3611037   3.806   3.920   9.389
   66MYC    H3711038   3.802   4.085   9.362
   66MYC    C2211039   3.982   4.004   9.282
   66MYC    H3811040   4.057   4.084   9.288
   66MYC    H3911041   4.040   3.914   9.300
   66MYC    C2311042   3.919   3.999   9.141
   66MYC    H4011043   3.843   3.922   9.119
   66MYC    H4111044   3.862   4.090   9.120
   66MYC    C2411045   4.027   3.979   9.034
   66MYC    H4211046   4.101   4.060   9.046
   66MYC    H4311047   4.078   3.882   9.040
   66MYC    C2511048   3.952   3.984   8.900
   66MYC    H4411049   3.866   3.916   8.907
   66MYC    H4511050   3.908   4.081   8.876
   66MYC    C2611051   4.033   3.936   8.779
   66MYC    H4611052   4.135   3.976   8.774
   66MYC    H4711053   4.046   3.831   8.807
   66MYC    C2711054   3.965   3.954   8.642
   66MYC    H4811055   3.869   3.900   8.645
   66MYC    H4911056   3.941   4.060   8.627
   66MYC    C2811057   4.046   3.915   8.518
   66MYC    H5011058   4.135   3.978   8.508
   66MYC    H5111059   4.073   3.809   8.527
   66MYC    C2911060   3.965   3.925   8.387
   66MYC    H5211061   3.908   3.832   8.386
   66MYC    H5311062   3.888   4.001   8.403
   66MYC    C3011063   4.047   3.936   8.257
   66MYC    H5411064   4.111   4.025   8.261
   66MYC    H5511065   4.113   3.849   8.244
   66MYC    C3111066   3.954   3.942   8.135
   66MYC    H5611067   3.886   3.856   8.131
   66MYC    H5711068   3.883   4.025   8.144
   66MYC    C3211069   4.040   3.949   8.008
   66MYC    H5811070   4.108   4.035   8.009
   66MYC    H5911071   4.095   3.857   7.982
   66MYC    C3311072   3.946   3.966   7.887
   66MYC    H6011073   3.867   3.890   7.896
   66MYC    H6111074   3.899   4.065   7.890
   66MYC    C3411075   4.029   3.946   7.760
   66MYC    H6211076   4.111   4.019   7.755
   66MYC    H6311077   4.067   3.844   7.762
   66MYC    C3511078   3.942   3.975   7.636
   66MYC    H6411079   3.849   3.916   7.635
   66MYC    H6511080   3.909   4.079   7.639
   66MYC    C3611081   4.010   3.959   7.499
   66MYC    H6611082   4.102   4.018   7.493
   66MYC    H6711083   4.050   3.857   7.494
   66MYC    C3711084   3.914   3.990   7.383
   66MYC    H6811085   3.827   3.923   7.392
   66MYC    H6911086   3.872   4.091   7.384
   66MYC    C3811087   3.985   3.967   7.249
   66MYC    H7011088   4.059   4.047   7.244
   66MYC    H7111089   4.054   3.882   7.259
   66MYC    C3911090   3.905   3.961   7.118
   66MYC    H7211091   3.818   3.897   7.140
   66MYC    H7311092   3.856   4.055   7.091
   66MYC    C4011093   3.993   3.919   6.999
   66MYC    H7411094   4.081   3.983   6.985
   66MYC    H7511095   4.039   3.823   7.024
   66MYC    C4111096   3.912   3.916   6.868
   66MYC    H7611097   3.831   3.845   6.885
   66MYC    H7711098   3.875   4.017   6.848
   66MYC    C4211099   3.992   3.861   6.748
   66MYC    H7811100   4.078   3.924   6.720
   66MYC    H7911101   4.035   3.768   6.786
   66MYC    C4311102   3.904   3.832   6.626
   66MYC    H8011103   3.961   3.787   6.544
   66MYC    H8111104   3.861   3.927   6.591
   66MYC    H8211105   3.815   3.771   6.645
   67MYC   5H1511106   4.233   4.478   6.635
   67MYC    C8011107   4.257   4.396   6.703
   67MYC   3H1511108   4.245   4.300   6.651
   67MYC   4H1511109   4.363   4.400   6.732
   67MYC    C7911110   4.174   4.391   6.832
   67MYC   1H1511111   4.081   4.336   6.812
   67MYC   2H1511112   4.150   4.496   6.853
   67MYC    C7811113   4.236   4.329   6.959
   67MYC   9H1411114   4.336   4.372   6.970
   67MYC   0H1511115   4.256   4.222   6.949
   67MYC    C7711116   4.151   4.357   7.084
   67MYC   7H1411117   4.068   4.285   7.080
   67MYC   8H1411118   4.115   4.460   7.091
   67MYC    C7611119   4.227   4.320   7.212
   67MYC   5H1411120   4.322   4.375   7.212
   67MYC   6H1411121   4.238   4.211   7.206
   67MYC    C7511122   4.131   4.345   7.330
   67MYC   3H1411123   4.047   4.275   7.320
   67MYC   4H1411124   4.096   4.449   7.331
   67MYC    C7411125   4.200   4.325   7.466
   67MYC   1H1411126   4.290   4.387   7.476
   67MYC   2H1411127   4.233   4.220   7.460
   67MYC    C7311128   4.118   4.341   7.595
   67MYC   9H1311129   4.050   4.255   7.603
   67MYC   0H1411130   4.059   4.433   7.586
   67MYC    C7211131   4.206   4.335   7.721
   67MYC   7H1311132   4.275   4.420   7.709
   67MYC   8H1311133   4.265   4.243   7.730
   67MYC    C7111134   4.116   4.356   7.843
   67MYC   5H1311135   4.036   4.281   7.848
   67MYC   6H1311136   4.051   4.444   7.834
   67MYC    C7011137   4.199   4.364   7.972
   67MYC   3H1311138   4.264   4.452   7.963
   67MYC   4H1311139   4.262   4.274   7.973
   67MYC    C6911140   4.115   4.370   8.100
   67MYC   1H1311141   4.047   4.284   8.109
   67MYC   2H1311142   4.057   4.462   8.086
   67MYC    C6811143   4.200   4.397   8.226
   67MYC   9H1211144   4.243   4.497   8.212
   67MYC   0H1311145   4.287   4.332   8.218
   67MYC    C6711146   4.128   4.376   8.360
   67MYC   7H1211147   4.083   4.276   8.370
   67MYC   8H1211148   4.048   4.450   8.367
   67MYC    C6611149   4.220   4.399   8.482
   67MYC   5H1211150   4.271   4.496   8.480
   67MYC   6H1211151   4.298   4.323   8.476
   67MYC    C6511152   4.141   4.402   8.614
   67MYC   3H1211153   4.093   4.305   8.626
   67MYC   4H1211154   4.061   4.477   8.613
   67MYC    C6411155   4.231   4.440   8.734
   67MYC   1H1211156   4.285   4.531   8.705
   67MYC   2H1211157   4.307   4.363   8.755
   67MYC    C6311158   4.153   4.456   8.865
   67MYC   9H1111159   4.081   4.373   8.864
   67MYC   0H1211160   4.097   4.550   8.862
   67MYC    C6211161   4.248   4.463   8.985
   67MYC   7H1111162   4.307   4.555   8.979
   67MYC   8H1111163   4.320   4.381   8.984
   67MYC    C6111164   4.183   4.456   9.124
   67MYC   5H1111165   4.119   4.367   9.120
   67MYC   6H1111166   4.116   4.543   9.132
   67MYC    C6011167   4.276   4.446   9.244
   67MYC   4H1111168   4.345   4.531   9.244
   67MYC    C5811169   4.221   4.415   9.381
   67MYC   1H1111170   4.114   4.396   9.385
   67MYC    C5911171   4.313   4.317   9.313
   67MYC   2H1111172   4.417   4.307   9.344
   67MYC   3H1111173   4.281   4.225   9.266
   67MYC    C5711174   4.267   4.486   9.508
   67MYC   9H1011175   4.203   4.572   9.530
   67MYC   0H1111176   4.373   4.515   9.496
   67MYC    C5611177   4.255   4.388   9.626
   67MYC   7H1011178   4.325   4.304   9.629
   67MYC   8H1011179   4.155   4.346   9.635
   67MYC    C5511180   4.276   4.453   9.764
   67MYC   5H1011181   4.216   4.546   9.759
   67MYC   6H1011182   4.379   4.490   9.776
   67MYC    C5411183   4.240   4.368   9.886
   67MYC   3H1011184   4.297   4.274   9.886
   67MYC   4H1011185   4.135   4.337   9.881
   67MYC    C5311186   4.273   4.447  10.014
   67MYC   1H1011187   4.219   4.541  10.022
   67MYC   2H1011188   4.378   4.477  10.025
   67MYC    C5211189   4.248   4.360  10.139
   67MYC    H9911190   4.329   4.287  10.137
   67MYC   0H1011191   4.157   4.300  10.126
   67MYC    C5111192   4.250   4.432  10.275
   67MYC    H9711193   4.163   4.498  10.285
   67MYC    H9811194   4.339   4.496  10.271
   67MYC    C5011195   4.260   4.332  10.392
   67MYC    H9511196   4.337   4.255  10.378
   67MYC    H9611197   4.165   4.277  10.389
   67MYC    C4911198   4.286   4.408  10.523
   67MYC    H9311199   4.216   4.491  10.542
   67MYC    H9411200   4.383   4.458  10.518
   67MYC    C4811201   4.290   4.315  10.645
   67MYC    H9111202   4.385   4.261  10.640
   67MYC    H9211203   4.208   4.243  10.640
   67MYC    C4711204   4.284   4.393  10.778
   67MYC    H8911205   4.179   4.422  10.794
   67MYC    H9011206   4.343   4.486  10.770
   67MYC    C4611207   4.324   4.305  10.897
   67MYC    H8711208   4.431   4.288  10.880
   67MYC    H8811209   4.266   4.213  10.892
   67MYC    C4511210   4.305   4.373  11.034
   67MYC    H8511211   4.198   4.371  11.060
   67MYC    H8611212   4.342   4.476  11.025
   67MYC    C4411213   4.401   4.314  11.139
   67MYC    H8311214   4.403   4.377  11.228
   67MYC    H8411215   4.502   4.321  11.098
   67MYC    C1811216   4.370   4.176  11.197
   67MYC    H3111217   4.263   4.157  11.186
   67MYC    C1711218   4.462   4.058  11.208
   67MYC    H3011219   4.562   4.077  11.169
   67MYC    C1911220   4.428   4.139  11.331
   67MYC    H3211221   4.504   4.203  11.374
   67MYC    H3311222   4.364   4.096  11.407
   67MYC    C1611223   4.415   3.914  11.203
   67MYC    H2811224   4.307   3.902  11.188
   67MYC    H2911225   4.431   3.873  11.303
   67MYC    C1511226   4.489   3.826  11.100
   67MYC    H2611227   4.439   3.730  11.119
   67MYC    H2711228   4.594   3.815  11.129
   67MYC    C1411229   4.478   3.882  10.957
   67MYC    H2411230   4.527   3.980  10.960
   67MYC    H2511231   4.373   3.892  10.931
   67MYC    C1311232   4.548   3.796  10.850
   67MYC    H2211233   4.503   3.696  10.846
   67MYC    H2311234   4.653   3.781  10.876
   67MYC    C1211235   4.545   3.857  10.709
   67MYC    H2011236   4.556   3.965  10.722
   67MYC    H2111237   4.448   3.846  10.659
   67MYC    C1111238   4.646   3.796  10.610
   67MYC    H1811239   4.610   3.699  10.574
   67MYC    H1911240   4.738   3.771  10.663
   67MYC    C1011241   4.684   3.873  10.483
   67MYC    H1611242   4.788   3.850  10.457
   67MYC    H1711243   4.689   3.981  10.499
   67MYC     C911244   4.599   3.826  10.363
   67MYC    H1411245   4.492   3.834  10.385
   67MYC    H1511246   4.619   3.720  10.344
   67MYC     C811247   4.612   3.922  10.243
   67MYC    H1211248   4.714   3.924  10.202
   67MYC    H1311249   4.604   4.020  10.290
   67MYC     C711250   4.504   3.914  10.134
   67MYC    H1011251   4.408   3.926  10.186
   67MYC    H1111252   4.503   3.808  10.105
   67MYC     C611253   4.529   4.009  10.015
   67MYC     H811254   4.638   4.005  10.003
   67MYC     H911255   4.497   4.107  10.052
   67MYC     C511256   4.444   3.980   9.891
   67MYC     H611257   4.430   4.068   9.827
   67MYC     H711258   4.350   3.954   9.940
   67MYC     C411259   4.491   3.860   9.806
   67MYC     H411260   4.398   3.822   9.762
   67MYC     H511261   4.524   3.778   9.870
   67MYC     C211262   4.590   3.894   9.694
   67MYC     H211263   4.549   3.982   9.643
   67MYC     O311264   4.716   3.929   9.752
   67MYC     H311265   4.781   3.881   9.698
   67MYC     C111266   4.608   3.788   9.585
   67MYC     H111267   4.509   3.761   9.546
   67MYC    C8111268   4.677   3.662   9.637
   67MYC    O8211269   4.799   3.650   9.640
   67MYC    O8311270   4.595   3.564   9.679
   67MYC   6H1511271   4.659   3.490   9.685
   67MYC    C2011272   4.676   3.840   9.457
   67MYC    H3411273   4.761   3.901   9.490
   67MYC    H3511274   4.722   3.757   9.402
   67MYC    C2111275   4.593   3.920   9.355
   67MYC    H3611276   4.496   3.869   9.347
   67MYC    H3711277   4.572   4.022   9.392
   67MYC    C2211278   4.650   3.945   9.214
   67MYC    H3811279   4.744   4.001   9.221
   67MYC    H3911280   4.686   3.856   9.160
   67MYC    C2311281   4.545   4.015   9.127
   67MYC    H4011282   4.464   3.945   9.103
   67MYC    H4111283   4.515   4.106   9.180
   67MYC    C2411284   4.608   4.065   8.996
   67MYC    H4211285   4.631   4.172   9.003
   67MYC    H4311286   4.694   4.001   8.975
   67MYC    C2511287   4.508   4.054   8.879
   67MYC    H4411288   4.456   3.957   8.884
   67MYC    H4511289   4.444   4.142   8.886
   67MYC    C2611290   4.584   4.064   8.745
   67MYC    H4611291   4.662   4.141   8.754
   67MYC    H4711292   4.639   3.971   8.733
   67MYC    C2711293   4.487   4.087   8.628
   67MYC    H4811294   4.406   4.016   8.646
   67MYC    H4911295   4.437   4.185   8.628
   67MYC    C2811296   4.561   4.061   8.495
   67MYC    H5011297   4.633   4.137   8.461
   67MYC    H5111298   4.614   3.965   8.494
   67MYC    C2911299   4.462   4.043   8.379
   67MYC    H5211300   4.382   3.971   8.402
   67MYC    H5311301   4.415   4.142   8.374
   67MYC    C3011302   4.534   4.000   8.250
   67MYC    H5411303   4.608   4.076   8.223
   67MYC    H5511304   4.583   3.903   8.267
   67MYC    C3111305   4.434   3.963   8.139
   67MYC    H5611306   4.377   3.873   8.168
   67MYC    H5711307   4.365   4.048   8.133
   67MYC    C3211308   4.505   3.943   8.004
   67MYC    H5811309   4.573   4.027   7.986
   67MYC    H5911310   4.572   3.857   8.017
   67MYC    C3311311   4.413   3.926   7.882
   67MYC    H6011312   4.336   3.848   7.895
   67MYC    H6111313   4.361   4.022   7.873
   67MYC    C3411314   4.492   3.900   7.753
   67MYC    H6211315   4.572   3.975   7.744
   67MYC    H6311316   4.524   3.796   7.764
   67MYC    C3511317   4.409   3.898   7.624
   67MYC    H6411318   4.358   3.801   7.615
   67MYC    H6511319   4.336   3.980   7.621
   67MYC    C3611320   4.500   3.912   7.501
   67MYC    H6611321   4.558   4.006   7.492
   67MYC    H6711322   4.574   3.832   7.509
   67MYC    C3711323   4.412   3.899   7.376
   67MYC    H6811324   4.347   3.811   7.376
   67MYC    H6911325   4.351   3.989   7.365
   67MYC    C3811326   4.494   3.893   7.245
   67MYC    H7011327   4.538   3.993   7.235
   67MYC    H7111328   4.579   3.824   7.247
   67MYC    C3911329   4.407   3.877   7.120
   67MYC    H7211330   4.351   3.782   7.116
   67MYC    H7311331   4.336   3.960   7.130
   67MYC    C4011332   4.485   3.891   6.988
   67MYC    H7411333   4.560   3.971   6.999
   67MYC    H7511334   4.542   3.797   6.981
   67MYC    C4111335   4.394   3.919   6.868
   67MYC    H7611336   4.329   3.832   6.849
   67MYC    H7711337   4.326   4.000   6.898
   67MYC    C4211338   4.469   3.966   6.742
   67MYC    H7811339   4.518   4.060   6.769
   67MYC    H7911340   4.551   3.899   6.714
   67MYC    C4311341   4.384   3.990   6.616
   67MYC    H8011342   4.431   4.053   6.540
   67MYC    H8111343   4.292   4.035   6.656
   67MYC    H8211344   4.342   3.899   6.572
   68MYC   5H1511345   5.344   3.553   6.723
   68MYC    C8011346   5.318   3.638   6.787
   68MYC   3H1511347   5.405   3.706   6.789
   68MYC   4H1511348   5.228   3.688   6.752
   68MYC    C7911349   5.290   3.599   6.933
   68MYC   1H1511350   5.379   3.547   6.971
   68MYC   2H1511351   5.218   3.516   6.935
   68MYC    C7811352   5.245   3.719   7.019
   68MYC   9H1411353   5.160   3.763   6.965
   68MYC   0H1511354   5.325   3.793   7.018
   68MYC    C7711355   5.201   3.663   7.156
   68MYC   7H1411356   5.281   3.604   7.202
   68MYC   8H1411357   5.117   3.592   7.145
   68MYC    C7611358   5.147   3.779   7.240
   68MYC   5H1411359   5.047   3.814   7.210
   68MYC   6H1411360   5.211   3.868   7.232
   68MYC    C7511361   5.147   3.730   7.386
   68MYC   3H1411362   5.244   3.690   7.417
   68MYC   4H1411363   5.080   3.644   7.399
   68MYC    C7411364   5.116   3.844   7.485
   68MYC   1H1411365   5.058   3.916   7.427
   68MYC   2H1411366   5.212   3.883   7.520
   68MYC    C7311367   5.038   3.798   7.610
   68MYC   9H1311368   5.099   3.721   7.658
   68MYC   0H1411369   4.941   3.751   7.587
   68MYC    C7211370   5.015   3.914   7.709
   68MYC   7H1311371   4.942   3.985   7.669
   68MYC   8H1311372   5.107   3.970   7.728
   68MYC    C7111373   4.958   3.851   7.838
   68MYC   5H1311374   5.033   3.780   7.875
   68MYC   6H1311375   4.867   3.796   7.812
   68MYC    C7011376   4.916   3.947   7.950
   68MYC   3H1311377   4.824   3.996   7.916
   68MYC   4H1311378   4.987   4.030   7.957
   68MYC    C6911379   4.899   3.875   8.085
   68MYC   1H1311380   4.966   3.788   8.089
   68MYC   2H1311381   4.794   3.845   8.094
   68MYC    C6811382   4.931   3.969   8.203
   68MYC   9H1211383   4.866   4.057   8.213
   68MYC   0H1311384   5.032   4.009   8.193
   68MYC    C6711385   4.906   3.884   8.329
   68MYC   7H1211386   4.957   3.789   8.309
   68MYC   8H1211387   4.797   3.877   8.336
   68MYC    C6611388   4.964   3.954   8.453
   68MYC   5H1211389   4.889   4.032   8.475
   68MYC   6H1211390   5.057   4.007   8.427
   68MYC    C6511391   4.992   3.855   8.568
   68MYC   3H1211392   5.040   3.768   8.522
   68MYC   4H1211393   4.894   3.832   8.612
   68MYC    C6411394   5.074   3.917   8.682
   68MYC   1H1211395   5.023   3.999   8.734
   68MYC   2H1211396   5.164   3.963   8.641
   68MYC    C6311397   5.109   3.810   8.787
   68MYC   9H1111398   5.163   3.729   8.736
   68MYC   0H1211399   5.012   3.772   8.822
   68MYC    C6211400   5.189   3.865   8.906
   68MYC   7H1111401   5.133   3.946   8.955
   68MYC   8H1111402   5.284   3.905   8.871
   68MYC    C6111403   5.195   3.752   9.010
   68MYC   5H1111404   5.256   3.673   8.964
   68MYC   6H1111405   5.096   3.707   9.027
   68MYC    C6011406   5.255   3.788   9.145
   68MYC   4H1111407   5.304   3.885   9.135
   68MYC    C5811408   5.213   3.731   9.278
   68MYC   1H1111409   5.137   3.654   9.272
   68MYC    C5911410   5.340   3.683   9.213
   68MYC   2H1111411   5.434   3.707   9.262
   68MYC   3H1111412   5.336   3.586   9.163
   68MYC    C5711413   5.214   3.810   9.409
   68MYC   9H1011414   5.124   3.873   9.400
   68MYC   0H1111415   5.298   3.880   9.416
   68MYC    C5611416   5.202   3.738   9.544
   68MYC   7H1011417   5.303   3.702   9.563
   68MYC   8H1011418   5.146   3.643   9.538
   68MYC    C5511419   5.147   3.819   9.662
   68MYC   5H1011420   5.042   3.791   9.668
   68MYC   6H1011421   5.150   3.928   9.648
   68MYC    C5411422   5.196   3.783   9.804
   68MYC   3H1011423   5.306   3.787   9.797
   68MYC   4H1011424   5.164   3.681   9.829
   68MYC    C5311425   5.139   3.874   9.913
   68MYC   1H1011426   5.032   3.855   9.929
   68MYC   2H1011427   5.149   3.976   9.875
   68MYC    C5211428   5.199   3.855  10.054
   68MYC    H9911429   5.298   3.902  10.055
   68MYC   0H1011430   5.217   3.747  10.065
   68MYC    C5111431   5.124   3.906  10.178
   68MYC    H9711432   5.032   3.847  10.191
   68MYC    H9811433   5.085   4.005  10.150
   68MYC    C5011434   5.199   3.926  10.310
   68MYC    H9511435   5.270   4.009  10.306
   68MYC    H9611436   5.255   3.837  10.341
   68MYC    C4911437   5.098   3.965  10.420
   68MYC    H9311438   5.031   3.882  10.445
   68MYC    H9411439   5.031   4.042  10.380
   68MYC    C4811440   5.157   4.014  10.554
   68MYC    H9111441   5.226   4.100  10.554
   68MYC    H9211442   5.213   3.934  10.603
   68MYC    C4711443   5.042   4.053  10.648
   68MYC    H8911444   4.968   3.975  10.669
   68MYC    H9011445   4.983   4.131  10.599
   68MYC    C4611446   5.091   4.113  10.781
   68MYC    H8711447   5.157   4.197  10.753
   68MYC    H8811448   5.155   4.045  10.839
   68MYC    C4511449   4.976   4.166  10.868
   68MYC    H8511450   4.906   4.087  10.896
   68MYC    H8611451   4.916   4.240  10.813
   68MYC    C4411452   5.029   4.227  10.999
   68MYC    H8311453   4.949   4.291  11.039
   68MYC    H8411454   5.102   4.305  10.975
   68MYC    C1811455   5.078   4.121  11.097
   68MYC    H3111456   5.066   4.019  11.059
   68MYC    C1711457   5.199   4.151  11.181
   68MYC    H3011458   5.242   4.250  11.171
   68MYC    C1911459   5.063   4.143  11.245
   68MYC    H3211460   5.014   4.234  11.281
   68MYC    H3311461   5.039   4.057  11.306
   68MYC    C1611462   5.298   4.040  11.212
   68MYC    H2811463   5.258   3.943  11.179
   68MYC    H2911464   5.306   4.032  11.321
   68MYC    C1511465   5.437   4.069  11.153
   68MYC    H2611466   5.506   3.989  11.184
   68MYC    H2711467   5.474   4.168  11.185
   68MYC    C1411468   5.430   4.075  11.000
   68MYC    H2411469   5.381   4.171  10.977
   68MYC    H2511470   5.370   3.993  10.960
   68MYC    C1311471   5.572   4.070  10.941
   68MYC    H2211472   5.610   3.969  10.962
   68MYC    H2311473   5.637   4.143  10.992
   68MYC    C1211474   5.572   4.096  10.790
   68MYC    H2011475   5.521   4.192  10.777
   68MYC    H2111476   5.499   4.025  10.749
   68MYC    C1111477   5.702   4.108  10.709
   68MYC    H1811478   5.763   4.017  10.714
   68MYC    H1911479   5.747   4.194  10.759
   68MYC    C1011480   5.688   4.142  10.559
   68MYC    H1611481   5.781   4.190  10.528
   68MYC    H1711482   5.612   4.220  10.550
   68MYC     C911483   5.652   4.022  10.469
   68MYC    H1411484   5.562   3.976  10.511
   68MYC    H1511485   5.740   3.956  10.469
   68MYC     C811486   5.625   4.057  10.322
   68MYC    H1211487   5.714   4.104  10.278
   68MYC    H1311488   5.544   4.130  10.313
   68MYC     C711489   5.602   3.940  10.225
   68MYC    H1011490   5.512   3.883  10.251
   68MYC    H1111491   5.684   3.872  10.248
   68MYC     C611492   5.617   3.989  10.081
   68MYC     H811493   5.716   4.036  10.068
   68MYC     H911494   5.551   4.075  10.064
   68MYC     C511495   5.599   3.876   9.979
   68MYC     H611496   5.505   3.820   9.984
   68MYC     H711497   5.672   3.798  10.005
   68MYC     C411498   5.619   3.911   9.830
   68MYC     H411499   5.624   3.821   9.768
   68MYC     H511500   5.721   3.951   9.825
   68MYC     C211501   5.528   3.999   9.743
   68MYC     H211502   5.510   3.937   9.654
   68MYC     O311503   5.402   4.022   9.806
   68MYC     H311504   5.379   4.116   9.797
   68MYC     C111505   5.600   4.127   9.697
   68MYC     H111506   5.707   4.111   9.683
   68MYC    C8111507   5.599   4.237   9.802
   68MYC    O8211508   5.495   4.293   9.833
   68MYC    O8311509   5.708   4.243   9.882
   68MYC   6H1511510   5.683   4.313   9.944
   68MYC    C2011511   5.549   4.173   9.559
   68MYC    H3411512   5.440   4.182   9.570
   68MYC    H3511513   5.585   4.277   9.557
   68MYC    C2111514   5.597   4.088   9.441
   68MYC    H3611515   5.702   4.060   9.458
   68MYC    H3711516   5.535   3.997   9.445
   68MYC    C2211517   5.577   4.170   9.313
   68MYC    H3811518   5.471   4.198   9.312
   68MYC    H3911519   5.634   4.262   9.330
   68MYC    C2311520   5.613   4.111   9.176
   68MYC    H4011521   5.714   4.069   9.184
   68MYC    H4111522   5.549   4.026   9.148
   68MYC    C2411523   5.602   4.221   9.069
   68MYC    H4211524   5.511   4.282   9.081
   68MYC    H4311525   5.682   4.294   9.087
   68MYC    C2511526   5.613   4.166   8.926
   68MYC    H4411527   5.715   4.126   8.913
   68MYC    H4511528   5.538   4.086   8.926
   68MYC    C2611529   5.583   4.269   8.817
   68MYC    H4611530   5.482   4.311   8.813
   68MYC    H4711531   5.653   4.351   8.836
   68MYC    C2711532   5.605   4.208   8.677
   68MYC    H4811533   5.706   4.166   8.666
   68MYC    H4911534   5.538   4.121   8.675
   68MYC    C2811535   5.582   4.290   8.549
   68MYC    H5011536   5.480   4.325   8.566
   68MYC    H5111537   5.654   4.373   8.544
   68MYC    C2911538   5.587   4.199   8.425
   68MYC    H5211539   5.674   4.133   8.436
   68MYC    H5311540   5.501   4.131   8.422
   68MYC    C3011541   5.585   4.278   8.293
   68MYC    H5411542   5.494   4.340   8.289
   68MYC    H5511543   5.665   4.353   8.302
   68MYC    C3111544   5.592   4.200   8.161
   68MYC    H5611545   5.681   4.135   8.157
   68MYC    H5711546   5.501   4.140   8.171
   68MYC    C3211547   5.579   4.276   8.028
   68MYC    H5811548   5.502   4.354   8.031
   68MYC    H5911549   5.675   4.327   8.022
   68MYC    C3311550   5.557   4.176   7.913
   68MYC    H6011551   5.636   4.100   7.907
   68MYC    H6111552   5.459   4.132   7.934
   68MYC    C3411553   5.555   4.250   7.778
   68MYC    H6211554   5.474   4.323   7.766
   68MYC    H6311555   5.649   4.301   7.753
   68MYC    C3511556   5.537   4.147   7.665
   68MYC    H6411557   5.595   4.057   7.688
   68MYC    H6511558   5.431   4.121   7.664
   68MYC    C3611559   5.583   4.196   7.527
   68MYC    H6611560   5.532   4.289   7.499
   68MYC    H6711561   5.691   4.215   7.534
   68MYC    C3711562   5.553   4.098   7.412
   68MYC    H6811563   5.586   4.000   7.450
   68MYC    H6911564   5.444   4.089   7.404
   68MYC    C3811565   5.618   4.134   7.278
   68MYC    H7011566   5.567   4.225   7.244
   68MYC    H7111567   5.723   4.161   7.298
   68MYC    C3911568   5.610   4.028   7.166
   68MYC    H7211569   5.694   3.960   7.177
   68MYC    H7311570   5.518   3.968   7.168
   68MYC    C4011571   5.620   4.098   7.029
   68MYC    H7411572   5.538   4.169   7.012
   68MYC    H7511573   5.704   4.167   7.038
   68MYC    C4111574   5.633   4.001   6.910
   68MYC    H7611575   5.733   3.956   6.916
   68MYC    H7711576   5.552   3.927   6.903
   68MYC    C4211577   5.634   4.084   6.781
   68MYC    H7811578   5.570   4.173   6.787
   68MYC    H7911579   5.733   4.124   6.757
   68MYC    C4311580   5.598   4.003   6.656
   68MYC    H8011581   5.636   3.900   6.644
   68MYC    H8111582   5.618   4.065   6.568
   68MYC    H8211583   5.490   3.981   6.657
   69MYC   5H1511584   6.162   4.046   6.559
   69MYC    C8011585   6.164   4.112   6.646
   69MYC   3H1511586   6.272   4.130   6.662
   69MYC   4H1511587   6.125   4.213   6.627
   69MYC    C7911588   6.100   4.047   6.769
   69MYC   1H1511589   6.124   3.940   6.771
   69MYC   2H1511590   5.991   4.059   6.759
   69MYC    C7811591   6.150   4.114   6.898
   69MYC   9H1411592   6.136   4.222   6.889
   69MYC   0H1511593   6.257   4.096   6.914
   69MYC    C7711594   6.063   4.068   7.016
   69MYC   7H1411595   6.052   3.959   7.015
   69MYC   8H1411596   5.960   4.107   7.012
   69MYC    C7611597   6.130   4.099   7.151
   69MYC   5H1411598   6.130   4.207   7.171
   69MYC   6H1411599   6.238   4.079   7.145
   69MYC    C7511600   6.061   4.024   7.266
   69MYC   3H1411601   6.059   3.918   7.240
   69MYC   4H1411602   5.961   4.064   7.286
   69MYC    C7411603   6.122   4.042   7.407
   69MYC   1H1411604   6.128   4.149   7.427
   69MYC   2H1411605   6.228   4.016   7.401
   69MYC    C7311606   6.044   3.973   7.520
   69MYC   9H1311607   6.030   3.870   7.485
   69MYC   0H1411608   5.944   4.019   7.526
   69MYC    C7211609   6.111   3.963   7.658
   69MYC   7H1311610   6.150   4.062   7.687
   69MYC   8H1311611   6.193   3.890   7.660
   69MYC    C7111612   6.009   3.912   7.761
   69MYC   5H1311613   5.970   3.815   7.727
   69MYC   6H1311614   5.925   3.981   7.748
   69MYC    C7011615   6.060   3.911   7.905
   69MYC   3H1311616   6.127   3.995   7.931
   69MYC   4H1311617   6.125   3.823   7.914
   69MYC    C6911618   5.957   3.910   8.020
   69MYC   1H1311619   5.893   3.823   8.003
   69MYC   2H1311620   5.892   3.998   8.013
   69MYC    C6811621   6.032   3.903   8.154
   69MYC   9H1211622   6.112   3.978   8.153
   69MYC   0H1311623   6.087   3.808   8.157
   69MYC    C6711624   5.952   3.941   8.280
   69MYC   7H1211625   5.864   3.877   8.293
   69MYC   8H1211626   5.897   4.036   8.271
   69MYC    C6611627   6.046   3.944   8.401
   69MYC   5H1211628   6.133   4.010   8.389
   69MYC   6H1211629   6.091   3.845   8.406
   69MYC    C6511630   5.976   3.975   8.534
   69MYC   3H1211631   5.908   3.894   8.564
   69MYC   4H1211632   5.919   4.069   8.536
   69MYC    C6411633   6.074   3.966   8.652
   69MYC   1H1211634   6.169   4.013   8.624
   69MYC   2H1211635   6.099   3.861   8.674
   69MYC    C6311636   6.010   4.034   8.774
   69MYC   9H1111637   5.925   3.969   8.796
   69MYC   0H1211638   5.963   4.131   8.756
   69MYC    C6211639   6.095   4.041   8.902
   69MYC   7H1111640   6.185   4.102   8.886
   69MYC   8H1111641   6.130   3.939   8.922
   69MYC    C6111642   6.016   4.088   9.026
   69MYC   5H1111643   5.929   4.022   9.034
   69MYC   6H1111644   5.982   4.190   9.004
   69MYC    C6011645   6.096   4.095   9.155
   69MYC   4H1111646   6.188   4.149   9.132
   69MYC    C5811647   6.027   4.096   9.289
   69MYC   1H1111648   5.919   4.109   9.288
   69MYC    C5911649   6.092   3.970   9.240
   69MYC   2H1111650   6.188   3.943   9.284
   69MYC   3H1111651   6.028   3.890   9.205
   69MYC    C5711652   6.085   4.170   9.409
   69MYC   9H1011653   6.075   4.278   9.391
   69MYC   0H1111654   6.192   4.148   9.413
   69MYC    C5611655   6.010   4.131   9.537
   69MYC   7H1011656   6.018   4.023   9.554
   69MYC   8H1011657   5.904   4.157   9.533
   69MYC    C5511658   6.059   4.214   9.658
   69MYC   5H1011659   6.005   4.309   9.658
   69MYC   6H1011660   6.164   4.246   9.655
   69MYC    C5411661   6.033   4.147   9.793
   69MYC   3H1011662   6.082   4.049   9.795
   69MYC   4H1011663   5.926   4.121   9.800
   69MYC    C5311664   6.079   4.231   9.914
   69MYC   1H1011665   6.029   4.327   9.932
   69MYC   2H1011666   6.183   4.261   9.899
   69MYC    C5211667   6.080   4.137  10.036
   69MYC    H9911668   6.152   4.054  10.031
   69MYC   0H1011669   5.989   4.077  10.047
   69MYC    C5111670   6.106   4.206  10.171
   69MYC    H9711671   6.026   4.280  10.188
   69MYC    H9811672   6.196   4.268  10.163
   69MYC    C5011673   6.120   4.103  10.284
   69MYC    H9511674   6.207   4.037  10.268
   69MYC    H9611675   6.037   4.031  10.286
   69MYC    C4911676   6.130   4.173  10.421
   69MYC    H9311677   6.046   4.243  10.429
   69MYC    H9411678   6.217   4.239  10.421
   69MYC    C4811679   6.129   4.085  10.547
   69MYC    H9111680   6.214   4.016  10.536
   69MYC    H9211681   6.035   4.028  10.553
   69MYC    C4711682   6.152   4.152  10.683
   69MYC    H8911683   6.074   4.226  10.705
   69MYC    H9011684   6.245   4.209  10.671
   69MYC    C4611685   6.168   4.052  10.799
   69MYC    H8711686   6.255   3.992  10.770
   69MYC    H8811687   6.089   3.978  10.816
   69MYC    C4511688   6.196   4.124  10.932
   69MYC    H8511689   6.100   4.163  10.968
   69MYC    H8611690   6.257   4.213  10.912
   69MYC    C4411691   6.250   4.031  11.041
   69MYC    H8311692   6.276   4.094  11.127
   69MYC    H8411693   6.346   3.987  11.012
   69MYC    C1811694   6.151   3.925  11.088
   69MYC    H3111695   6.050   3.966  11.084
   69MYC    C1711696   6.151   3.784  11.036
   69MYC    H3011697   6.227   3.746  10.969
   69MYC    C1911698   6.187   3.811  11.180
   69MYC    H3211699   6.294   3.802  11.197
   69MYC    H3311700   6.115   3.792  11.260
   69MYC    C1611701   6.016   3.726  10.994
   69MYC    H2811702   5.982   3.757  10.895
   69MYC    H2911703   5.939   3.766  11.061
   69MYC    C1511704   6.001   3.573  10.999
   69MYC    H2611705   5.898   3.539  11.015
   69MYC    H2711706   6.056   3.535  11.086
   69MYC    C1411707   6.055   3.504  10.872
   69MYC    H2411708   6.082   3.400  10.892
   69MYC    H2511709   6.145   3.546  10.825
   69MYC    C1311710   5.946   3.495  10.764
   69MYC    H2211711   5.925   3.592  10.717
   69MYC    H2311712   5.852   3.462  10.811
   69MYC    C1211713   5.973   3.402  10.645
   69MYC    H2011714   5.998   3.300  10.676
   69MYC    H2111715   6.061   3.435  10.587
   69MYC    C1111716   5.859   3.390  10.542
   69MYC    H1811717   5.812   3.489  10.539
   69MYC    H1911718   5.783   3.317  10.575
   69MYC    C1011719   5.890   3.343  10.399
   69MYC    H1611720   5.795   3.341  10.344
   69MYC    H1711721   5.928   3.240  10.399
   69MYC     C911722   5.997   3.427  10.329
   69MYC    H1411723   6.101   3.392  10.338
   69MYC    H1511724   6.010   3.528  10.370
   69MYC     C811725   5.962   3.455  10.182
   69MYC    H1211726   5.862   3.498  10.170
   69MYC    H1311727   5.953   3.362  10.125
   69MYC     C711728   6.058   3.555  10.115
   69MYC    H1011729   6.163   3.525  10.128
   69MYC    H1111730   6.044   3.653  10.163
   69MYC     C611731   6.034   3.562   9.964
   69MYC     H811732   5.926   3.551   9.949
   69MYC     H911733   6.061   3.461   9.929
   69MYC     C511734   6.078   3.689   9.889
   69MYC     H611735   6.187   3.700   9.889
   69MYC     H711736   6.053   3.778   9.947
   69MYC     C411737   6.002   3.719   9.759
   69MYC     H411738   6.040   3.817   9.728
   69MYC     H511739   5.897   3.742   9.780
   69MYC     C211740   6.005   3.619   9.642
   69MYC     H211741   6.012   3.685   9.555
   69MYC     O311742   6.110   3.524   9.658
   69MYC     H311743   6.174   3.558   9.723
   69MYC     C111744   5.868   3.558   9.612
   69MYC     H111745   5.805   3.647   9.602
   69MYC    C8111746   5.805   3.478   9.726
   69MYC    O8211747   5.804   3.356   9.733
   69MYC    O8311748   5.720   3.548   9.803
   69MYC   6H1511749   5.691   3.484   9.870
   69MYC    C2011750   5.851   3.475   9.484
   69MYC    H3411751   5.891   3.373   9.493
   69MYC    H3511752   5.743   3.463   9.470
   69MYC    C2111753   5.896   3.543   9.353
   69MYC    H3611754   5.833   3.632   9.348
   69MYC    H3711755   6.001   3.574   9.358
   69MYC    C2211756   5.879   3.453   9.230
   69MYC    H3811757   5.940   3.362   9.246
   69MYC    H3911758   5.776   3.416   9.234
   69MYC    C2311759   5.912   3.525   9.098
   69MYC    H4011760   5.863   3.622   9.087
   69MYC    H4111761   6.018   3.547   9.114
   69MYC    C2411762   5.888   3.431   8.979
   69MYC    H4211763   5.929   3.331   8.997
   69MYC    H4311764   5.781   3.408   8.976
   69MYC    C2511765   5.931   3.491   8.844
   69MYC    H4411766   5.884   3.589   8.827
   69MYC    H4511767   6.039   3.508   8.836
   69MYC    C2611768   5.884   3.405   8.725
   69MYC    H4611769   5.956   3.323   8.711
   69MYC    H4711770   5.788   3.356   8.746
   69MYC    C2711771   5.868   3.484   8.594
   69MYC    H4811772   5.799   3.568   8.607
   69MYC    H4911773   5.965   3.536   8.585
   69MYC    C2811774   5.849   3.395   8.471
   69MYC    H5011775   5.917   3.310   8.486
   69MYC    H5111776   5.744   3.363   8.463
   69MYC    C2911777   5.893   3.464   8.341
   69MYC    H5211778   5.829   3.552   8.331
   69MYC    H5311779   5.992   3.512   8.349
   69MYC    C3011780   5.880   3.389   8.207
   69MYC    H5411781   5.964   3.319   8.199
   69MYC    H5511782   5.787   3.331   8.212
   69MYC    C3111783   5.869   3.473   8.079
   69MYC    H5611784   5.791   3.550   8.093
   69MYC    H5711785   5.961   3.532   8.075
   69MYC    C3211786   5.869   3.399   7.944
   69MYC    H5811787   5.945   3.319   7.936
   69MYC    H5911788   5.775   3.343   7.932
   69MYC    C3311789   5.882   3.494   7.824
   69MYC    H6011790   5.789   3.551   7.813
   69MYC    H6111791   5.955   3.572   7.847
   69MYC    C3411792   5.904   3.420   7.691
   69MYC    H6211793   6.009   3.389   7.699
   69MYC    H6311794   5.835   3.335   7.679
   69MYC    C3511795   5.893   3.521   7.576
   69MYC    H6411796   5.792   3.564   7.575
   69MYC    H6511797   5.962   3.605   7.590
   69MYC    C3611798   5.920   3.449   7.443
   69MYC    H6611799   6.016   3.397   7.454
   69MYC    H6711800   5.847   3.368   7.433
   69MYC    C3711801   5.921   3.546   7.323
   69MYC    H6811802   5.830   3.606   7.314
   69MYC    H6911803   5.992   3.628   7.338
   69MYC    C3811804   5.943   3.473   7.189
   69MYC    H7011805   6.042   3.426   7.179
   69MYC    H7111806   5.869   3.394   7.172
   69MYC    C3911807   5.941   3.564   7.065
   69MYC    H7211808   5.850   3.625   7.068
   69MYC    H7311809   6.019   3.640   7.064
   69MYC    C4011810   5.954   3.485   6.933
   69MYC    H7411811   6.053   3.460   6.892
   69MYC    H7511812   5.893   3.395   6.943
   69MYC    C4111813   5.882   3.568   6.825
   69MYC    H7611814   5.787   3.608   6.862
   69MYC    H7711815   5.935   3.662   6.802
   69MYC    C4211816   5.851   3.484   6.701
   69MYC    H7811817   5.932   3.423   6.659
   69MYC    H7911818   5.780   3.407   6.733
   69MYC    C4311819   5.780   3.561   6.588
   69MYC    H8011820   5.827   3.535   6.493
   69MYC    H8111821   5.779   3.670   6.605
   69MYC    H8211822   5.678   3.521   6.581
   70MYC   5H1511823   0.450   4.578   6.594
   70MYC    C8011824   0.490   4.548   6.692
   70MYC   3H1511825   0.539   4.450   6.691
   70MYC   4H1511826   0.565   4.626   6.706
   70MYC    C7911827   0.384   4.563   6.802
   70MYC   1H1511828   0.320   4.473   6.801
   70MYC   2H1511829   0.326   4.655   6.788
   70MYC    C7811830   0.456   4.575   6.937
   70MYC   9H1411831   0.534   4.651   6.930
   70MYC   0H1511832   0.508   4.479   6.952
   70MYC    C7711833   0.360   4.608   7.053
   70MYC   7H1411834   0.298   4.518   7.061
   70MYC   8H1411835   0.301   4.695   7.020
   70MYC    C7611836   0.421   4.635   7.192
   70MYC   5H1411837   0.499   4.710   7.179
   70MYC   6H1411838   0.458   4.538   7.227
   70MYC    C7511839   0.312   4.687   7.287
   70MYC   3H1411840   0.239   4.606   7.296
   70MYC   4H1411841   0.264   4.772   7.236
   70MYC    C7411842   0.363   4.722   7.428
   70MYC   1H1411843   0.445   4.795   7.422
   70MYC   2H1411844   0.414   4.633   7.467
   70MYC    C7311845   0.252   4.773   7.520
   70MYC   9H1311846   0.159   4.723   7.491
   70MYC   0H1411847   0.232   4.880   7.501
   70MYC    C7211848   0.280   4.742   7.668
   70MYC   7H1311849   0.388   4.728   7.686
   70MYC   8H1311850   0.236   4.645   7.693
   70MYC    C7111851   0.213   4.843   7.763
   70MYC   5H1311852   0.107   4.856   7.735
   70MYC   6H1311853   0.248   4.944   7.743
   70MYC    C7011854   0.236   4.794   7.907
   70MYC   3H1311855   0.342   4.784   7.936
   70MYC   4H1311856   0.200   4.691   7.917
   70MYC    C6911857   0.160   4.881   8.009
   70MYC   1H1311858   0.061   4.890   7.962
   70MYC   2H1311859   0.200   4.982   8.025
   70MYC    C6811860   0.135   4.807   8.142
   70MYC   9H1211861   0.150   4.700   8.128
   70MYC   0H1311862   0.027   4.819   8.157
   70MYC    C6711863   0.223   4.862   8.255
   70MYC   7H1211864   0.204   4.970   8.266
   70MYC   8H1211865   0.327   4.839   8.229
   70MYC    C6611866   0.181   4.798   8.388
   70MYC   5H1211867   0.160   4.693   8.363
   70MYC   6H1211868   0.084   4.840   8.416
   70MYC    C6511869   0.289   4.809   8.498
   70MYC   3H1211870   0.333   4.905   8.524
   70MYC   4H1211871   0.377   4.756   8.459
   70MYC    C6411872   0.236   4.749   8.629
   70MYC   1H1211873   0.160   4.673   8.608
   70MYC   2H1211874   0.190   4.836   8.679
   70MYC    C6311875   0.343   4.696   8.726
   70MYC   9H1111876   0.413   4.776   8.752
   70MYC   0H1211877   0.397   4.616   8.674
   70MYC    C6211878   0.282   4.628   8.850
   70MYC   7H1111879   0.221   4.543   8.820
   70MYC   8H1111880   0.201   4.690   8.892
   70MYC    C6111881   0.383   4.591   8.960
   70MYC   5H1111882   0.432   4.681   8.999
   70MYC   6H1111883   0.463   4.533   8.913
   70MYC    C6011884   0.332   4.516   9.082
   70MYC   4H1111885   0.401   4.439   9.116
   70MYC    C5811886   0.240   4.586   9.179
   70MYC   1H1111887   0.215   4.688   9.153
   70MYC    C5911888   0.190   4.468   9.099
   70MYC   2H1111889   0.169   4.381   9.162
   70MYC   3H1111890   0.123   4.477   9.014
   70MYC    C5711891   0.269   4.581   9.329
   70MYC   9H1011892   0.288   4.478   9.361
   70MYC   0H1111893   0.178   4.595   9.388
   70MYC    C5611894   0.386   4.674   9.367
   70MYC   7H1011895   0.356   4.775   9.336
   70MYC   8H1011896   0.478   4.654   9.310
   70MYC    C5511897   0.401   4.668   9.520
   70MYC   5H1011898   0.496   4.719   9.541
   70MYC   6H1011899   0.406   4.566   9.560
   70MYC    C5411900   0.294   4.742   9.602
   70MYC   3H1011901   0.199   4.687   9.605
   70MYC   4H1011902   0.278   4.837   9.549
   70MYC    C5311903   0.354   4.768   9.742
   70MYC   1H1011904   0.448   4.823   9.732
   70MYC   2H1011905   0.378   4.673   9.790
   70MYC    C5211906   0.269   4.856   9.835
   70MYC    H9911907   0.165   4.822   9.844
   70MYC   0H1011908   0.264   4.960   9.798
   70MYC    C5111909   0.332   4.855   9.975
   70MYC    H9711910   0.435   4.893   9.968
   70MYC    H9811911   0.333   4.753  10.014
   70MYC    C5011912   0.255   4.945  10.073
   70MYC    H9511913   0.150   4.913  10.074
   70MYC    H9611914   0.267   5.048  10.039
   70MYC    C4911915   0.302   4.928  10.219
   70MYC    H9311916   0.409   4.953  10.225
   70MYC    H9411917   0.317   4.823  10.245
   70MYC    C4811918   0.214   5.001  10.322
   70MYC    H9111919   0.113   4.961  10.311
   70MYC    H9211920   0.220   5.106  10.291
   70MYC    C4711921   0.259   4.983  10.468
   70MYC    H8911922   0.358   5.025  10.490
   70MYC    H9011923   0.259   4.874  10.485
   70MYC    C4611924   0.152   5.031  10.568
   70MYC    H8711925   0.069   4.960  10.560
   70MYC    H8811926   0.112   5.127  10.534
   70MYC    C4511927   0.189   5.035  10.717
   70MYC    H8511928   0.101   5.060  10.778
   70MYC    H8611929   0.269   5.106  10.743
   70MYC    C4411930   0.235   4.896  10.766
   70MYC    H8311931   0.280   4.902  10.866
   70MYC    H8411932   0.315   4.858  10.702
   70MYC    C1811933   0.129   4.787  10.759
   70MYC    H3111934   0.103   4.762  10.656
   70MYC    C1711935   0.131   4.686  10.871
   70MYC    H3011936   0.202   4.697  10.953
   70MYC    C1911937   0.020   4.788  10.862
   70MYC    H3211938   0.018   4.866  10.937
   70MYC    H3311939  -0.080   4.757  10.830
   70MYC    C1611940   0.096   4.542  10.840
   70MYC    H2811941   0.049   4.537  10.741
   70MYC    H2911942   0.014   4.519  10.909
   70MYC    C1511943   0.208   4.436  10.850
   70MYC    H2611944   0.164   4.340  10.822
   70MYC    H2711945   0.252   4.437  10.951
   70MYC    C1411946   0.327   4.463  10.756
   70MYC    H2411947   0.385   4.553  10.781
   70MYC    H2511948   0.274   4.479  10.661
   70MYC    C1311949   0.426   4.346  10.746
   70MYC    H2211950   0.387   4.244  10.756
   70MYC    H2311951   0.512   4.358  10.812
   70MYC    C1211952   0.494   4.354  10.608
   70MYC    H2011953   0.534   4.454  10.590
   70MYC    H2111954   0.422   4.340  10.526
   70MYC    C1111955   0.600   4.248  10.574
   70MYC    H1811956   0.573   4.144  10.598
   70MYC    H1911957   0.684   4.255  10.644
   70MYC    C1011958   0.660   4.251  10.433
   70MYC    H1611959   0.753   4.193  10.429
   70MYC    H1711960   0.691   4.354  10.408
   70MYC     C911961   0.560   4.219  10.321
   70MYC    H1411962   0.486   4.299  10.305
   70MYC    H1511963   0.506   4.126  10.345
   70MYC     C811964   0.629   4.199  10.185
   70MYC    H1211965   0.689   4.107  10.188
   70MYC    H1311966   0.699   4.280  10.162
   70MYC     C711967   0.520   4.184  10.078
   70MYC    H1011968   0.453   4.272  10.078
   70MYC    H1111969   0.461   4.093  10.094
   70MYC     C611970   0.571   4.173   9.934
   70MYC     H811971   0.535   4.075   9.902
   70MYC     H911972   0.680   4.167   9.927
   70MYC     C511973   0.516   4.280   9.838
   70MYC     H611974   0.586   4.365   9.832
   70MYC     H711975   0.427   4.331   9.878
   70MYC     C411976   0.482   4.232   9.696
   70MYC     H411977   0.392   4.292   9.674
   70MYC     H511978   0.462   4.124   9.697
   70MYC     C211979   0.577   4.267   9.580
   70MYC     H211980   0.508   4.283   9.497
   70MYC     O311981   0.647   4.390   9.602
   70MYC     H311982   0.730   4.364   9.645
   70MYC     C111983   0.671   4.154   9.534
   70MYC     H111984   0.620   4.058   9.521
   70MYC    C8111985   0.788   4.128   9.628
   70MYC    O8211986   0.824   4.207   9.714
   70MYC    O8311987   0.846   4.006   9.618
   70MYC   6H1511988   0.910   4.011   9.691
   70MYC    C2011989   0.737   4.182   9.398
   70MYC    H3411990   0.813   4.261   9.399
   70MYC    H3511991   0.797   4.091   9.385
   70MYC    C2111992   0.639   4.195   9.280
   70MYC    H3611993   0.568   4.112   9.290
   70MYC    H3711994   0.581   4.287   9.288
   70MYC    C2211995   0.721   4.204   9.149
   70MYC    H3811996   0.810   4.266   9.163
   70MYC    H3911997   0.756   4.101   9.136
   70MYC    C2311998   0.634   4.242   9.028
   70MYC    H4011999   0.531   4.207   9.027
   70MYC    H4112000   0.613   4.350   9.025
   70MYC    C2412001   0.704   4.222   8.892
   70MYC    H4212002   0.799   4.277   8.886
   70MYC    H4312003   0.723   4.114   8.893
   70MYC    C2512004   0.621   4.256   8.768
   70MYC    H4412005   0.524   4.205   8.760
   70MYC    H4512006   0.590   4.361   8.762
   70MYC    C2612007   0.696   4.214   8.640
   70MYC    H4612008   0.796   4.258   8.645
   70MYC    H4712009   0.710   4.105   8.647
   70MYC    C2712010   0.619   4.251   8.512
   70MYC    H4812011   0.522   4.200   8.509
   70MYC    H4912012   0.603   4.359   8.502
   70MYC    C2812013   0.698   4.197   8.391
   70MYC    H5012014   0.796   4.244   8.375
   70MYC    H5112015   0.707   4.088   8.389
   70MYC    C2912016   0.616   4.230   8.265
   70MYC    H5212017   0.514   4.191   8.279
   70MYC    H5312018   0.604   4.339   8.259
   70MYC    C3012019   0.663   4.167   8.133
   70MYC    H5412020   0.769   4.194   8.135
   70MYC    H5512021   0.656   4.058   8.140
   70MYC    C3112022   0.598   4.221   8.005
   70MYC    H5612023   0.495   4.257   8.021
   70MYC    H5712024   0.646   4.309   7.960
   70MYC    C3212025   0.615   4.111   7.898
   70MYC    H5812026   0.712   4.063   7.914
   70MYC    H5912027   0.548   4.028   7.922
   70MYC    C3312028   0.610   4.162   7.753
   70MYC    H6012029   0.516   4.218   7.748
   70MYC    H6112030   0.685   4.241   7.738
   70MYC    C3412031   0.629   4.048   7.652
   70MYC    H6212032   0.720   3.996   7.686
   70MYC    H6312033   0.546   3.977   7.648
   70MYC    C3512034   0.643   4.111   7.513
   70MYC    H6412035   0.552   4.168   7.490
   70MYC    H6512036   0.722   4.187   7.509
   70MYC    C3612037   0.673   4.012   7.398
   70MYC    H6612038   0.738   3.931   7.432
   70MYC    H6712039   0.574   3.970   7.373
   70MYC    C3712040   0.731   4.091   7.279
   70MYC    H6812041   0.696   4.194   7.283
   70MYC    H6912042   0.839   4.101   7.291
   70MYC    C3812043   0.691   4.040   7.139
   70MYC    H7012044   0.704   3.932   7.136
   70MYC    H7112045   0.584   4.063   7.129
   70MYC    C3912046   0.775   4.106   7.028
   70MYC    H7212047   0.765   4.215   7.038
   70MYC    H7312048   0.878   4.069   7.030
   70MYC    C4012049   0.713   4.071   6.891
   70MYC    H7412050   0.757   3.975   6.864
   70MYC    H7512051   0.607   4.046   6.894
   70MYC    C4112052   0.738   4.174   6.779
   70MYC    H7612053   0.688   4.268   6.807
   70MYC    H7712054   0.844   4.189   6.759
   70MYC    C4212055   0.667   4.127   6.651
   70MYC    H7812056   0.717   4.031   6.632
   70MYC    H7912057   0.558   4.115   6.660
   70MYC    C4312058   0.687   4.214   6.525
   70MYC    H8012059   0.613   4.187   6.448
   70MYC    H8112060   0.791   4.206   6.490
   70MYC    H8212061   0.662   4.315   6.558
   71MYC   5H1512062   0.991   4.700   6.651
   71MYC    C8012063   1.010   4.726   6.756
   71MYC   3H1512064   1.112   4.692   6.777
   71MYC   4H1512065   0.999   4.835   6.765
   71MYC    C7912066   0.907   4.650   6.842
   71MYC   1H1512067   0.923   4.543   6.820
   71MYC   2H1512068   0.806   4.684   6.816
   71MYC    C7812069   0.944   4.668   6.990
   71MYC   9H1412070   0.922   4.773   7.015
   71MYC   0H1512071   1.050   4.645   7.009
   71MYC    C7712072   0.852   4.591   7.085
   71MYC   7H1412073   0.829   4.491   7.047
   71MYC   8H1412074   0.754   4.641   7.084
   71MYC    C7612075   0.911   4.583   7.227
   71MYC   5H1412076   0.954   4.680   7.256
   71MYC   6H1412077   0.991   4.508   7.227
   71MYC    C7512078   0.805   4.551   7.334
   71MYC   3H1412079   0.809   4.442   7.346
   71MYC   4H1412080   0.706   4.578   7.296
   71MYC    C7412081   0.840   4.619   7.468
   71MYC   1H1412082   0.805   4.723   7.469
   71MYC   2H1412083   0.949   4.621   7.471
   71MYC    C7312084   0.786   4.541   7.589
   71MYC   9H1312085   0.821   4.438   7.597
   71MYC   0H1412086   0.677   4.544   7.600
   71MYC    C7212087   0.831   4.618   7.715
   71MYC   7H1312088   0.786   4.718   7.711
   71MYC   8H1312089   0.939   4.636   7.711
   71MYC    C7112090   0.793   4.541   7.843
   71MYC   5H1312091   0.847   4.446   7.844
   71MYC   6H1312092   0.686   4.516   7.849
   71MYC    C7012093   0.824   4.624   7.969
   71MYC   3H1312094   0.799   4.730   7.958
   71MYC   4H1312095   0.933   4.619   7.979
   71MYC    C6912096   0.773   4.569   8.103
   71MYC   1H1312097   0.808   4.465   8.102
   71MYC   2H1312098   0.664   4.578   8.105
   71MYC    C6812099   0.827   4.646   8.225
   71MYC   9H1212100   0.789   4.749   8.229
   71MYC   0H1312101   0.936   4.651   8.214
   71MYC    C6712102   0.781   4.581   8.356
   71MYC   7H1212103   0.843   4.492   8.373
   71MYC   8H1212104   0.676   4.551   8.346
   71MYC    C6612105   0.788   4.672   8.480
   71MYC   5H1212106   0.694   4.726   8.497
   71MYC   6H1212107   0.865   4.743   8.449
   71MYC    C6512108   0.830   4.595   8.607
   71MYC   3H1212109   0.936   4.572   8.596
   71MYC   4H1212110   0.770   4.504   8.619
   71MYC    C6412111   0.824   4.681   8.735
   71MYC   1H1212112   0.741   4.751   8.728
   71MYC   2H1212113   0.910   4.749   8.739
   71MYC    C6312114   0.821   4.600   8.866
   71MYC   9H1112115   0.917   4.547   8.874
   71MYC   0H1212116   0.738   4.528   8.863
   71MYC    C6212117   0.794   4.690   8.987
   71MYC   7H1112118   0.690   4.722   8.972
   71MYC   8H1112119   0.861   4.777   8.984
   71MYC    C6112120   0.818   4.626   9.125
   71MYC   5H1112121   0.923   4.597   9.137
   71MYC   6H1112122   0.745   4.544   9.126
   71MYC    C6012123   0.782   4.722   9.238
   71MYC   4H1112124   0.683   4.766   9.238
   71MYC    C5812125   0.853   4.700   9.370
   71MYC   1H1112126   0.909   4.608   9.367
   71MYC    C5912127   0.890   4.818   9.282
   71MYC   2H1112128   0.852   4.916   9.310
   71MYC   3H1112129   0.987   4.818   9.233
   71MYC    C5712130   0.767   4.712   9.495
   71MYC   9H1012131   0.702   4.623   9.491
   71MYC   0H1112132   0.702   4.799   9.480
   71MYC    C5612133   0.837   4.722   9.631
   71MYC   7H1012134   0.906   4.807   9.628
   71MYC   8H1012135   0.908   4.639   9.627
   71MYC    C5512136   0.751   4.711   9.758
   71MYC   5H1012137   0.699   4.615   9.761
   71MYC   6H1012138   0.686   4.799   9.756
   71MYC    C5412139   0.849   4.716   9.876
   71MYC   3H1012140   0.892   4.817   9.881
   71MYC   4H1012141   0.925   4.638   9.859
   71MYC    C5312142   0.779   4.692  10.011
   71MYC   1H1012143   0.742   4.589  10.007
   71MYC   2H1012144   0.694   4.758  10.033
   71MYC    C5212145   0.869   4.711  10.134
   71MYC    H9912146   0.895   4.815  10.156
   71MYC   0H1012147   0.964   4.657  10.122
   71MYC    C5112148   0.799   4.663  10.263
   71MYC    H9712149   0.754   4.564  10.246
   71MYC    H9812150   0.707   4.714  10.293
   71MYC    C5012151   0.890   4.675  10.386
   71MYC    H9512152   0.906   4.783  10.398
   71MYC    H9612153   0.977   4.615  10.356
   71MYC    C4912154   0.827   4.619  10.514
   71MYC    H9312155   0.807   4.511  10.506
   71MYC    H9412156   0.728   4.663  10.530
   71MYC    C4812157   0.915   4.649  10.636
   71MYC    H9112158   0.942   4.755  10.627
   71MYC    H9212159   1.012   4.600  10.622
   71MYC    C4712160   0.856   4.604  10.771
   71MYC    H8912161   0.847   4.495  10.776
   71MYC    H9012162   0.759   4.647  10.797
   71MYC    C4612163   0.953   4.639  10.886
   71MYC    H8712164   0.956   4.748  10.895
   71MYC    H8812165   1.053   4.605  10.857
   71MYC    C4512166   0.925   4.561  11.015
   71MYC    H8512167   0.929   4.454  10.994
   71MYC    H8612168   0.823   4.593  11.040
   71MYC    C4412169   1.013   4.601  11.135
   71MYC    H8312170   0.982   4.539  11.220
   71MYC    H8412171   0.989   4.702  11.171
   71MYC    C1812172   1.161   4.578  11.112
   71MYC    H3112173   1.185   4.510  11.030
   71MYC    C1712174   1.257   4.691  11.140
   71MYC    H3012175   1.201   4.778  11.173
   71MYC    C1912176   1.256   4.569  11.229
   71MYC    H3212177   1.218   4.583  11.329
   71MYC    H3312178   1.329   4.490  11.217
   71MYC    C1612179   1.368   4.723  11.041
   71MYC    H2812180   1.367   4.652  10.957
   71MYC    H2912181   1.462   4.701  11.092
   71MYC    C1512182   1.371   4.868  10.988
   71MYC    H2612183   1.467   4.892  10.941
   71MYC    H2712184   1.369   4.946  11.065
   71MYC    C1412185   1.250   4.893  10.897
   71MYC    H2412186   1.156   4.875  10.951
   71MYC    H2512187   1.268   4.814  10.823
   71MYC    C1312188   1.246   5.028  10.824
   71MYC    H2212189   1.345   5.047  10.779
   71MYC    H2312190   1.218   5.102  10.900
   71MYC    C1212191   1.150   5.017  10.704
   71MYC    H2012192   1.046   5.010  10.739
   71MYC    H2112193   1.161   4.923  10.647
   71MYC    C1112194   1.174   5.134  10.608
   71MYC    H1812195   1.279   5.150  10.577
   71MYC    H1912196   1.154   5.224  10.668
   71MYC    C1012197   1.086   5.141  10.482
   71MYC    H1612198   1.126   5.216  10.412
   71MYC    H1712199   0.988   5.181  10.510
   71MYC     C912200   1.067   5.019  10.390
   71MYC    H1412201   0.993   5.045  10.313
   71MYC    H1512202   1.041   4.930  10.448
   71MYC     C812203   1.200   5.000  10.315
   71MYC    H1212204   1.277   4.967  10.385
   71MYC    H1312205   1.245   5.091  10.272
   71MYC     C712206   1.197   4.898  10.200
   71MYC    H1012207   1.115   4.924  10.132
   71MYC    H1112208   1.199   4.794  10.237
   71MYC     C612209   1.321   4.907  10.110
   71MYC     H812210   1.410   4.888  10.172
   71MYC     H912211   1.343   5.008  10.074
   71MYC     C512212   1.314   4.812   9.990
   71MYC     H612213   1.243   4.856   9.919
   71MYC     H712214   1.281   4.712  10.023
   71MYC     C412215   1.445   4.810   9.909
   71MYC     H412216   1.457   4.707   9.872
   71MYC     H512217   1.531   4.825   9.975
   71MYC     C212218   1.447   4.906   9.789
   71MYC     H212219   1.365   4.878   9.721
   71MYC     O312220   1.424   5.036   9.843
   71MYC     H312221   1.379   5.025   9.929
   71MYC     C112222   1.576   4.905   9.706
   71MYC     H112223   1.602   4.801   9.685
   71MYC    C8112224   1.694   4.964   9.781
   71MYC    O8212225   1.745   5.071   9.751
   71MYC    O8312226   1.750   4.893   9.882
   71MYC   6H1512227   1.819   4.956   9.909
   71MYC    C2012228   1.550   4.974   9.570
   71MYC    H3412229   1.499   5.071   9.578
   71MYC    H3512230   1.644   5.009   9.527
   71MYC    C2112231   1.490   4.886   9.459
   71MYC    H3612232   1.547   4.794   9.442
   71MYC    H3712233   1.389   4.852   9.484
   71MYC    C2212234   1.489   4.958   9.323
   71MYC    H3812235   1.404   5.027   9.317
   71MYC    H3912236   1.578   5.022   9.319
   71MYC    C2312237   1.481   4.866   9.201
   71MYC    H4012238   1.546   4.778   9.206
   71MYC    H4112239   1.385   4.813   9.187
   71MYC    C2412240   1.525   4.937   9.072
   71MYC    H4212241   1.461   5.025   9.060
   71MYC    H4312242   1.631   4.965   9.077
   71MYC    C2512243   1.494   4.856   8.946
   71MYC    H4412244   1.556   4.766   8.935
   71MYC    H4512245   1.389   4.826   8.952
   71MYC    C2612246   1.521   4.933   8.815
   71MYC    H4612247   1.480   5.035   8.820
   71MYC    H4712248   1.630   4.943   8.808
   71MYC    C2712249   1.470   4.858   8.691
   71MYC    H4812250   1.506   4.755   8.691
   71MYC    H4912251   1.360   4.858   8.682
   71MYC    C2812252   1.534   4.918   8.565
   71MYC    H5012253   1.514   5.026   8.566
   71MYC    H5112254   1.643   4.906   8.568
   71MYC    C2912255   1.471   4.859   8.437
   71MYC    H5212256   1.479   4.750   8.448
   71MYC    H5312257   1.364   4.881   8.432
   71MYC    C3012258   1.537   4.901   8.305
   71MYC    H5412259   1.569   5.006   8.307
   71MYC    H5512260   1.629   4.843   8.293
   71MYC    C3112261   1.442   4.878   8.186
   71MYC    H5612262   1.407   4.774   8.182
   71MYC    H5712263   1.354   4.942   8.202
   71MYC    C3212264   1.508   4.911   8.051
   71MYC    H5812265   1.536   5.017   8.050
   71MYC    H5912266   1.601   4.852   8.041
   71MYC    C3312267   1.411   4.889   7.934
   71MYC    H6012268   1.370   4.787   7.934
   71MYC    H6112269   1.323   4.952   7.954
   71MYC    C3412270   1.464   4.926   7.794
   71MYC    H6212271   1.473   5.035   7.794
   71MYC    H6312272   1.564   4.884   7.776
   71MYC    C3512273   1.381   4.892   7.669
   71MYC    H6412274   1.364   4.784   7.674
   71MYC    H6512275   1.281   4.935   7.685
   71MYC    C3612276   1.444   4.932   7.535
   71MYC    H6612277   1.477   5.037   7.536
   71MYC    H6712278   1.538   4.874   7.530
   71MYC    C3712279   1.363   4.898   7.409
   71MYC    H6812280   1.352   4.789   7.405
   71MYC    H6912281   1.260   4.933   7.417
   71MYC    C3812282   1.419   4.961   7.280
   71MYC    H7012283   1.412   5.070   7.285
   71MYC    H7112284   1.523   4.929   7.270
   71MYC    C3912285   1.345   4.914   7.153
   71MYC    H7212286   1.342   4.806   7.137
   71MYC    H7312287   1.245   4.957   7.163
   71MYC    C4012288   1.414   4.963   7.024
   71MYC    H7412289   1.431   5.071   7.033
   71MYC    H7512290   1.514   4.918   7.021
   71MYC    C4112291   1.349   4.918   6.892
   71MYC    H7612292   1.345   4.809   6.886
   71MYC    H7712293   1.243   4.949   6.894
   71MYC    C4212294   1.415   4.983   6.769
   71MYC    H7812295   1.437   5.084   6.805
   71MYC    H7912296   1.512   4.934   6.755
   71MYC    C4312297   1.333   4.988   6.638
   71MYC    H8012298   1.396   5.042   6.567
   71MYC    H8112299   1.248   5.053   6.662
   71MYC    H8212300   1.295   4.893   6.598
   72MYC   5H1512301   2.211   4.738   6.670
   72MYC    C8012302   2.254   4.719   6.770
   72MYC   3H1512303   2.235   4.615   6.797
   72MYC   4H1512304   2.361   4.742   6.761
   72MYC    C7912305   2.192   4.814   6.873
   72MYC   1H1512306   2.084   4.792   6.867
   72MYC   2H1512307   2.191   4.917   6.835
   72MYC    C7812308   2.247   4.796   7.015
   72MYC   9H1412309   2.354   4.813   7.000
   72MYC   0H1512310   2.233   4.691   7.044
   72MYC    C7712311   2.186   4.883   7.126
   72MYC   7H1412312   2.090   4.926   7.097
   72MYC   8H1412313   2.248   4.967   7.159
   72MYC    C7612314   2.160   4.806   7.257
   72MYC   5H1412315   2.252   4.757   7.292
   72MYC   6H1412316   2.077   4.735   7.256
   72MYC    C7512317   2.125   4.906   7.369
   72MYC   3H1412318   2.044   4.974   7.342
   72MYC   4H1412319   2.207   4.975   7.395
   72MYC    C7412320   2.069   4.833   7.493
   72MYC   1H1412321   2.108   4.731   7.500
   72MYC   2H1412322   1.962   4.824   7.470
   72MYC    C7312323   2.096   4.909   7.624
   72MYC   9H1312324   2.038   5.001   7.640
   72MYC   0H1412325   2.203   4.933   7.628
   72MYC    C7212326   2.065   4.820   7.745
   72MYC   7H1312327   2.093   4.714   7.739
   72MYC   8H1312328   1.955   4.817   7.750
   72MYC    C7112329   2.124   4.872   7.877
   72MYC   5H1312330   2.099   4.979   7.883
   72MYC   6H1312331   2.233   4.866   7.870
   72MYC    C7012332   2.067   4.803   8.002
   72MYC   3H1312333   2.087   4.695   8.003
   72MYC   4H1312334   1.957   4.801   7.999
   72MYC    C6912335   2.108   4.861   8.138
   72MYC   1H1312336   2.099   4.969   8.148
   72MYC   2H1312337   2.217   4.850   8.144
   72MYC    C6812338   2.041   4.805   8.265
   72MYC   9H1212339   2.045   4.696   8.262
   72MYC   0H1312340   1.938   4.839   8.283
   72MYC    C6712341   2.121   4.844   8.391
   72MYC   7H1212342   2.111   4.952   8.407
   72MYC   8H1212343   2.228   4.838   8.370
   72MYC    C6612344   2.087   4.770   8.521
   72MYC   5H1212345   2.098   4.664   8.495
   72MYC   6H1212346   1.983   4.784   8.555
   72MYC    C6512347   2.184   4.809   8.634
   72MYC   3H1212348   2.166   4.913   8.662
   72MYC   4H1212349   2.287   4.799   8.596
   72MYC    C6412350   2.171   4.713   8.753
   72MYC   1H1212351   2.207   4.612   8.729
   72MYC   2H1212352   2.062   4.712   8.767
   72MYC    C6312353   2.251   4.746   8.880
   72MYC   9H1112354   2.253   4.856   8.890
   72MYC   0H1212355   2.352   4.708   8.863
   72MYC    C6212356   2.201   4.664   9.000
   72MYC   7H1112357   2.284   4.648   9.070
   72MYC   8H1112358   2.179   4.562   8.965
   72MYC    C6112359   2.071   4.711   9.067
   72MYC   5H1112360   1.994   4.653   9.014
   72MYC   6H1112361   2.058   4.817   9.044
   72MYC    C6012362   2.071   4.689   9.218
   72MYC   4H1112363   2.076   4.587   9.253
   72MYC    C5812364   2.133   4.802   9.298
   72MYC   1H1112365   2.162   4.888   9.239
   72MYC    C5912366   1.983   4.782   9.297
   72MYC   2H1112367   1.937   4.735   9.384
   72MYC   3H1112368   1.925   4.855   9.241
   72MYC    C5712369   2.224   4.761   9.412
   72MYC   9H1012370   2.306   4.833   9.422
   72MYC   0H1112371   2.269   4.665   9.384
   72MYC    C5612372   2.153   4.751   9.548
   72MYC   7H1012373   2.077   4.673   9.536
   72MYC   8H1012374   2.101   4.843   9.580
   72MYC    C5512375   2.247   4.708   9.661
   72MYC   5H1012376   2.335   4.774   9.662
   72MYC   6H1012377   2.282   4.606   9.643
   72MYC    C5412378   2.174   4.706   9.797
   72MYC   3H1012379   2.087   4.640   9.786
   72MYC   4H1012380   2.137   4.803   9.831
   72MYC    C5312381   2.265   4.658   9.912
   72MYC   1H1012382   2.360   4.713   9.913
   72MYC   2H1012383   2.282   4.553   9.888
   72MYC    C5212384   2.200   4.663  10.052
   72MYC    H9912385   2.108   4.604  10.050
   72MYC   0H1012386   2.162   4.762  10.077
   72MYC    C5112387   2.296   4.602  10.156
   72MYC    H9712388   2.394   4.650  10.150
   72MYC    H9812389   2.309   4.499  10.121
   72MYC    C5012390   2.245   4.613  10.300
   72MYC    H9512391   2.156   4.550  10.317
   72MYC    H9612392   2.210   4.716  10.308
   72MYC    C4912393   2.354   4.588  10.406
   72MYC    H9312394   2.423   4.673  10.413
   72MYC    H9412395   2.410   4.498  10.378
   72MYC    C4812396   2.294   4.569  10.547
   72MYC    H9112397   2.207   4.502  10.548
   72MYC    H9212398   2.255   4.666  10.579
   72MYC    C4712399   2.409   4.524  10.638
   72MYC    H8912400   2.477   4.607  10.662
   72MYC    H9012401   2.467   4.446  10.589
   72MYC    C4612402   2.358   4.460  10.768
   72MYC    H8712403   2.324   4.358  10.748
   72MYC    H8812404   2.268   4.515  10.800
   72MYC    C4512405   2.468   4.450  10.875
   72MYC    H8512406   2.549   4.518  10.847
   72MYC    H8612407   2.503   4.346  10.878
   72MYC    C4412408   2.424   4.483  11.019
   72MYC    H8312409   2.516   4.482  11.079
   72MYC    H8412410   2.363   4.402  11.060
   72MYC    C1812411   2.351   4.616  11.032
   72MYC    H3112412   2.332   4.680  10.946
   72MYC    C1712413   2.250   4.628  11.143
   72MYC    H3012414   2.240   4.539  11.205
   72MYC    C1912415   2.380   4.703  11.152
   72MYC    H3212416   2.446   4.673  11.233
   72MYC    H3312417   2.370   4.811  11.144
   72MYC    C1612418   2.125   4.711  11.121
   72MYC    H2812419   2.129   4.797  11.053
   72MYC    H2912420   2.100   4.749  11.221
   72MYC    C1512421   2.001   4.625  11.089
   72MYC    H2612422   1.914   4.689  11.104
   72MYC    H2712423   2.000   4.552  11.170
   72MYC    C1412424   1.997   4.570  10.945
   72MYC    H2412425   2.084   4.506  10.929
   72MYC    H2512426   2.002   4.651  10.872
   72MYC    C1312427   1.867   4.493  10.916
   72MYC    H2212428   1.783   4.561  10.931
   72MYC    H2312429   1.856   4.417  10.994
   72MYC    C1212430   1.855   4.426  10.778
   72MYC    H2012431   1.894   4.323  10.782
   72MYC    H2112432   1.917   4.489  10.714
   72MYC    C1112433   1.712   4.437  10.721
   72MYC    H1812434   1.661   4.532  10.739
   72MYC    H1912435   1.647   4.371  10.780
   72MYC    C1012436   1.700   4.394  10.574
   72MYC    H1612437   1.595   4.406  10.546
   72MYC    H1712438   1.713   4.285  10.574
   72MYC     C912439   1.774   4.474  10.465
   72MYC    H1412440   1.879   4.495  10.487
   72MYC    H1512441   1.739   4.578  10.471
   72MYC     C812442   1.749   4.421  10.323
   72MYC    H1212443   1.640   4.412  10.312
   72MYC    H1312444   1.777   4.316  10.308
   72MYC     C712445   1.809   4.510  10.211
   72MYC    H1012446   1.917   4.515  10.225
   72MYC    H1112447   1.770   4.611  10.226
   72MYC     C612448   1.765   4.471  10.069
   72MYC     H812449   1.656   4.483  10.065
   72MYC     H912450   1.790   4.365  10.062
   72MYC     C512451   1.838   4.544   9.954
   72MYC     H612452   1.937   4.503   9.928
   72MYC     H712453   1.860   4.643   9.995
   72MYC     C412454   1.764   4.565   9.821
   72MYC     H412455   1.794   4.661   9.778
   72MYC     H512456   1.657   4.570   9.845
   72MYC     C212457   1.790   4.464   9.708
   72MYC     H212458   1.866   4.503   9.639
   72MYC     O312459   1.832   4.338   9.758
   72MYC     H312460   1.779   4.271   9.712
   72MYC     C112461   1.661   4.444   9.627
   72MYC     H112462   1.618   4.544   9.609
   72MYC    C8112463   1.566   4.353   9.704
   72MYC    O8212464   1.568   4.232   9.696
   72MYC    O8312465   1.455   4.417   9.746
   72MYC   6H1512466   1.396   4.345   9.775
   72MYC    C2012467   1.682   4.382   9.488
   72MYC    H3412468   1.758   4.303   9.500
   72MYC    H3512469   1.589   4.337   9.454
   72MYC    C2112470   1.730   4.484   9.382
   72MYC    H3612471   1.676   4.578   9.398
   72MYC    H3712472   1.837   4.502   9.399
   72MYC    C2212473   1.701   4.426   9.243
   72MYC    H3812474   1.734   4.322   9.232
   72MYC    H3912475   1.593   4.426   9.225
   72MYC    C2312476   1.753   4.511   9.126
   72MYC    H4012477   1.696   4.604   9.123
   72MYC    H4112478   1.860   4.528   9.147
   72MYC    C2412479   1.754   4.433   8.993
   72MYC    H4212480   1.814   4.341   8.997
   72MYC    H4312481   1.649   4.404   8.979
   72MYC    C2512482   1.806   4.508   8.869
   72MYC    H4412483   1.791   4.615   8.885
   72MYC    H4512484   1.911   4.483   8.852
   72MYC    C2612485   1.727   4.474   8.742
   72MYC    H4612486   1.729   4.364   8.734
   72MYC    H4712487   1.622   4.505   8.753
   72MYC    C2712488   1.783   4.550   8.620
   72MYC    H4812489   1.756   4.656   8.627
   72MYC    H4912490   1.891   4.540   8.611
   72MYC    C2812491   1.728   4.487   8.491
   72MYC    H5012492   1.765   4.383   8.488
   72MYC    H5112493   1.620   4.470   8.499
   72MYC    C2912494   1.775   4.548   8.359
   72MYC    H5212495   1.746   4.654   8.361
   72MYC    H5312496   1.885   4.546   8.360
   72MYC    C3012497   1.708   4.491   8.233
   72MYC    H5412498   1.725   4.383   8.236
   72MYC    H5512499   1.598   4.502   8.232
   72MYC    C3112500   1.762   4.559   8.106
   72MYC    H5612501   1.750   4.667   8.122
   72MYC    H5712502   1.869   4.534   8.104
   72MYC    C3212503   1.689   4.513   7.979
   72MYC    H5812504   1.710   4.408   7.956
   72MYC    H5912505   1.581   4.521   7.993
   72MYC    C3312506   1.724   4.598   7.856
   72MYC    H6012507   1.713   4.707   7.866
   72MYC    H6112508   1.828   4.580   7.825
   72MYC    C3412509   1.647   4.553   7.730
   72MYC    H6212510   1.629   4.445   7.734
   72MYC    H6312511   1.550   4.604   7.727
   72MYC    C3512512   1.718   4.584   7.598
   72MYC    H6412513   1.746   4.690   7.596
   72MYC    H6512514   1.808   4.521   7.603
   72MYC    C3612515   1.624   4.556   7.479
   72MYC    H6612516   1.607   4.449   7.459
   72MYC    H6712517   1.524   4.597   7.496
   72MYC    C3712518   1.667   4.622   7.348
   72MYC    H6812519   1.685   4.730   7.358
   72MYC    H6912520   1.762   4.575   7.319
   72MYC    C3812521   1.572   4.590   7.231
   72MYC    H7012522   1.547   4.484   7.231
   72MYC    H7112523   1.477   4.641   7.251
   72MYC    C3912524   1.632   4.617   7.092
   72MYC    H7212525   1.642   4.726   7.081
   72MYC    H7312526   1.736   4.584   7.078
   72MYC    C4012527   1.538   4.565   6.982
   72MYC    H7412528   1.520   4.458   7.000
   72MYC    H7512529   1.438   4.606   6.996
   72MYC    C4112530   1.595   4.593   6.841
   72MYC    H7612531   1.618   4.700   6.833
   72MYC    H7712532   1.685   4.534   6.823
   72MYC    C4212533   1.503   4.556   6.724
   72MYC    H7812534   1.475   4.450   6.729
   72MYC    H7912535   1.410   4.613   6.732
   72MYC    C4312536   1.559   4.590   6.585
   72MYC    H8012537   1.481   4.564   6.512
   72MYC    H8112538   1.650   4.532   6.566
   72MYC    H8212539   1.586   4.696   6.587
   73MYC   5H1512540   2.704   5.102   6.588
   73MYC    C8012541   2.686   5.042   6.678
   73MYC   3H1512542   2.577   5.028   6.674
   73MYC   4H1512543   2.731   4.942   6.671
   73MYC    C7912544   2.737   5.108   6.807
   73MYC   1H1512545   2.700   5.210   6.828
   73MYC   2H1512546   2.846   5.120   6.808
   73MYC    C7812547   2.694   5.031   6.934
   73MYC   9H1412548   2.727   4.927   6.928
   73MYC   0H1512549   2.585   5.040   6.942
   73MYC    C7712550   2.759   5.093   7.059
   73MYC   7H1412551   2.746   5.202   7.054
   73MYC   8H1412552   2.867   5.073   7.056
   73MYC    C7612553   2.700   5.053   7.195
   73MYC   5H1412554   2.719   4.946   7.208
   73MYC   6H1412555   2.591   5.067   7.186
   73MYC    C7512556   2.761   5.141   7.306
   73MYC   3H1412557   2.748   5.249   7.292
   73MYC   4H1412558   2.869   5.122   7.307
   73MYC    C7412559   2.690   5.102   7.436
   73MYC   1H1412560   2.678   4.993   7.441
   73MYC   2H1412561   2.587   5.140   7.429
   73MYC    C7312562   2.760   5.151   7.564
   73MYC   9H1312563   2.721   5.248   7.595
   73MYC   0H1412564   2.865   5.175   7.542
   73MYC    C7212565   2.755   5.058   7.687
   73MYC   7H1312566   2.822   4.971   7.678
   73MYC   8H1312567   2.649   5.027   7.691
   73MYC    C7112568   2.783   5.128   7.821
   73MYC   5H1312569   2.705   5.204   7.835
   73MYC   6H1312570   2.881   5.176   7.825
   73MYC    C7012571   2.775   5.029   7.939
   73MYC   3H1312572   2.863   4.965   7.930
   73MYC   4H1312573   2.692   4.959   7.925
   73MYC    C6912574   2.787   5.105   8.072
   73MYC   1H1312575   2.734   5.201   8.066
   73MYC   2H1312576   2.892   5.125   8.097
   73MYC    C6812577   2.723   5.025   8.187
   73MYC   9H1212578   2.774   4.928   8.192
   73MYC   0H1312579   2.620   4.997   8.159
   73MYC    C6712580   2.737   5.087   8.327
   73MYC   7H1212581   2.675   5.176   8.346
   73MYC   8H1212582   2.841   5.120   8.336
   73MYC    C6612583   2.707   4.989   8.441
   73MYC   5H1212584   2.769   4.899   8.436
   73MYC   6H1212585   2.601   4.961   8.434
   73MYC    C6512586   2.715   5.061   8.577
   73MYC   3H1212587   2.640   5.141   8.581
   73MYC   4H1212588   2.813   5.111   8.579
   73MYC    C6412589   2.690   4.960   8.690
   73MYC   1H1212590   2.746   4.866   8.678
   73MYC   2H1212591   2.582   4.942   8.694
   73MYC    C6312592   2.743   5.016   8.823
   73MYC   9H1112593   2.688   5.104   8.858
   73MYC   0H1212594   2.844   5.050   8.799
   73MYC    C6212595   2.751   4.925   8.948
   73MYC   7H1112596   2.839   4.949   9.009
   73MYC   8H1112597   2.766   4.822   8.913
   73MYC    C6112598   2.632   4.933   9.045
   73MYC   5H1112599   2.624   4.828   9.075
   73MYC   6H1112600   2.541   4.971   8.997
   73MYC    C6012601   2.656   5.005   9.177
   73MYC   4H1112602   2.648   5.113   9.165
   73MYC    C5812603   2.626   4.935   9.307
   73MYC   1H1112604   2.600   4.829   9.304
   73MYC    C5912605   2.768   4.966   9.269
   73MYC   2H1112606   2.816   5.024   9.348
   73MYC   3H1112607   2.838   4.890   9.234
   73MYC    C5712608   2.562   5.003   9.427
   73MYC   9H1012609   2.453   5.005   9.423
   73MYC   0H1112610   2.587   5.110   9.428
   73MYC    C5612611   2.609   4.939   9.559
   73MYC   7H1012612   2.718   4.952   9.563
   73MYC   8H1012613   2.587   4.832   9.554
   73MYC    C5512614   2.530   5.000   9.676
   73MYC   5H1012615   2.425   4.974   9.659
   73MYC   6H1012616   2.538   5.109   9.674
   73MYC    C5412617   2.576   4.942   9.812
   73MYC   3H1012618   2.685   4.950   9.819
   73MYC   4H1012619   2.545   4.837   9.814
   73MYC    C5312620   2.514   5.016   9.932
   73MYC   1H1012621   2.408   5.030   9.906
   73MYC   2H1012622   2.561   5.114   9.946
   73MYC    C5212623   2.527   4.942  10.066
   73MYC    H9912624   2.625   4.893  10.074
   73MYC   0H1012625   2.450   4.865  10.078
   73MYC    C5112626   2.502   5.032  10.189
   73MYC    H9712627   2.396   5.057  10.203
   73MYC    H9812628   2.552   5.127  10.168
   73MYC    C5012629   2.563   4.970  10.316
   73MYC    H9512630   2.669   4.942  10.306
   73MYC    H9612631   2.502   4.882  10.338
   73MYC    C4912632   2.553   5.070  10.432
   73MYC    H9312633   2.445   5.078  10.454
   73MYC    H9412634   2.587   5.166  10.393
   73MYC    C4812635   2.634   5.017  10.551
   73MYC    H9112636   2.738   4.992  10.524
   73MYC    H9212637   2.591   4.921  10.582
   73MYC    C4712638   2.628   5.118  10.667
   73MYC    H8912639   2.523   5.131  10.693
   73MYC    H9012640   2.674   5.213  10.638
   73MYC    C4612641   2.704   5.073  10.793
   73MYC    H8712642   2.808   5.040  10.783
   73MYC    H8812643   2.658   4.988  10.845
   73MYC    C4512644   2.699   5.197  10.884
   73MYC    H8512645   2.597   5.235  10.903
   73MYC    H8612646   2.735   5.282  10.826
   73MYC    C4412647   2.782   5.190  11.013
   73MYC    H8312648   2.809   5.281  11.068
   73MYC    H8412649   2.884   5.153  10.997
   73MYC    C1812650   2.717   5.096  11.114
   73MYC    H3112651   2.610   5.084  11.099
   73MYC    C1712652   2.783   4.969  11.163
   73MYC    H3012653   2.886   4.944  11.138
   73MYC    C1912654   2.766   5.086  11.257
   73MYC    H3212655   2.858   5.133  11.290
   73MYC    H3312656   2.691   5.083  11.335
   73MYC    C1612657   2.701   4.842  11.178
   73MYC    H2812658   2.608   4.863  11.124
   73MYC    H2912659   2.693   4.817  11.284
   73MYC    C1512660   2.762   4.718  11.109
   73MYC    H2612661   2.702   4.630  11.136
   73MYC    H2712662   2.861   4.696  11.149
   73MYC    C1412663   2.763   4.732  10.956
   73MYC    H2412664   2.805   4.830  10.931
   73MYC    H2512665   2.660   4.738  10.920
   73MYC    C1312666   2.836   4.615  10.888
   73MYC    H2212667   2.800   4.515  10.916
   73MYC    H2312668   2.938   4.614  10.927
   73MYC    C1212669   2.833   4.625  10.734
   73MYC    H2012670   2.884   4.714  10.696
   73MYC    H2112671   2.727   4.630  10.709
   73MYC    C1112672   2.894   4.497  10.675
   73MYC    H1812673   2.815   4.424  10.698
   73MYC    H1912674   2.984   4.480  10.736
   73MYC    C1012675   2.939   4.494  10.528
   73MYC    H1612676   2.972   4.393  10.501
   73MYC    H1712677   3.026   4.555  10.502
   73MYC     C912678   2.824   4.538  10.436
   73MYC    H1412679   2.801   4.645  10.443
   73MYC    H1512680   2.735   4.489  10.478
   73MYC     C812681   2.853   4.505  10.288
   73MYC    H1212682   2.840   4.398  10.268
   73MYC    H1312683   2.960   4.523  10.275
   73MYC     C712684   2.777   4.590  10.186
   73MYC    H1012685   2.828   4.687  10.186
   73MYC    H1112686   2.671   4.604  10.213
   73MYC     C612687   2.784   4.537  10.042
   73MYC     H812688   2.741   4.437  10.058
   73MYC     H912689   2.890   4.526  10.016
   73MYC     C512690   2.696   4.610   9.939
   73MYC     H612691   2.731   4.714   9.937
   73MYC     H712692   2.595   4.623   9.978
   73MYC     C412693   2.684   4.543   9.801
   73MYC     H412694   2.586   4.573   9.762
   73MYC     H512695   2.692   4.434   9.813
   73MYC     C212696   2.783   4.598   9.698
   73MYC     H212697   2.791   4.706   9.713
   73MYC     O312698   2.911   4.545   9.731
   73MYC     H312699   2.888   4.460   9.772
   73MYC     C112700   2.744   4.559   9.554
   73MYC     H112701   2.678   4.636   9.513
   73MYC    C8112702   2.673   4.425   9.543
   73MYC    O8212703   2.733   4.319   9.542
   73MYC    O8312704   2.543   4.432   9.505
   73MYC   6H1512705   2.508   4.342   9.494
   73MYC    C2012706   2.861   4.568   9.455
   73MYC    H3412707   2.898   4.671   9.461
   73MYC    H3512708   2.947   4.503   9.477
   73MYC    C2112709   2.817   4.542   9.310
   73MYC    H3612710   2.765   4.446   9.296
   73MYC    H3712711   2.741   4.618   9.287
   73MYC    C2212712   2.924   4.558   9.201
   73MYC    H3812713   2.963   4.659   9.214
   73MYC    H3912714   3.012   4.493   9.217
   73MYC    C2312715   2.867   4.551   9.059
   73MYC    H4012716   2.805   4.460   9.046
   73MYC    H4112717   2.792   4.631   9.052
   73MYC    C2412718   2.971   4.558   8.946
   73MYC    H4212719   3.061   4.616   8.970
   73MYC    H4312720   3.009   4.455   8.939
   73MYC    C2512721   2.916   4.607   8.811
   73MYC    H4412722   2.806   4.617   8.812
   73MYC    H4512723   2.957   4.708   8.796
   73MYC    C2612724   2.950   4.519   8.690
   73MYC    H4612725   3.058   4.504   8.673
   73MYC    H4712726   2.907   4.420   8.710
   73MYC    C2712727   2.885   4.580   8.565
   73MYC    H4812728   2.781   4.611   8.579
   73MYC    H4912729   2.943   4.671   8.544
   73MYC    C2812730   2.896   4.488   8.442
   73MYC    H5012731   3.000   4.451   8.439
   73MYC    H5112732   2.834   4.398   8.454
   73MYC    C2912733   2.852   4.562   8.315
   73MYC    H5212734   2.743   4.557   8.306
   73MYC    H5312735   2.875   4.669   8.317
   73MYC    C3012736   2.910   4.508   8.183
   73MYC    H5412737   3.017   4.529   8.192
   73MYC    H5512738   2.903   4.400   8.165
   73MYC    C3112739   2.859   4.582   8.058
   73MYC    H5612740   2.750   4.571   8.050
   73MYC    H5712741   2.890   4.686   8.077
   73MYC    C3212742   2.923   4.530   7.929
   73MYC    H5812743   3.031   4.514   7.936
   73MYC    H5912744   2.879   4.430   7.920
   73MYC    C3312745   2.899   4.625   7.811
   73MYC    H6012746   2.793   4.655   7.812
   73MYC    H6112747   2.958   4.717   7.818
   73MYC    C3412748   2.942   4.567   7.675
   73MYC    H6212749   3.050   4.544   7.672
   73MYC    H6312750   2.889   4.471   7.671
   73MYC    C3512751   2.905   4.643   7.547
   73MYC    H6412752   2.799   4.669   7.544
   73MYC    H6512753   2.940   4.747   7.552
   73MYC    C3612754   2.933   4.574   7.412
   73MYC    H6612755   3.040   4.551   7.417
   73MYC    H6712756   2.895   4.472   7.401
   73MYC    C3712757   2.890   4.653   7.288
   73MYC    H6812758   2.780   4.652   7.285
   73MYC    H6912759   2.920   4.758   7.299
   73MYC    C3812760   2.942   4.593   7.156
   73MYC    H7012761   3.041   4.630   7.124
   73MYC    H7112762   2.944   4.484   7.168
   73MYC    C3912763   2.836   4.608   7.045
   73MYC    H7212764   2.751   4.543   7.070
   73MYC    H7312765   2.793   4.709   7.038
   73MYC    C4012766   2.891   4.562   6.909
   73MYC    H7412767   2.995   4.593   6.900
   73MYC    H7512768   2.898   4.452   6.908
   73MYC    C4112769   2.808   4.608   6.788
   73MYC    H7612770   2.704   4.577   6.799
   73MYC    H7712771   2.805   4.717   6.784
   73MYC    C4212772   2.862   4.569   6.649
   73MYC    H7812773   2.961   4.617   6.644
   73MYC    H7912774   2.882   4.462   6.642
   73MYC    C4312775   2.782   4.629   6.532
   73MYC    H8012776   2.786   4.566   6.442
   73MYC    H8112777   2.818   4.731   6.517
   73MYC    H8212778   2.679   4.639   6.568
   74MYC   5H1512779   3.200   4.998   6.687
   74MYC    C8012780   3.202   4.912   6.755
   74MYC   3H1512781   3.140   4.830   6.717
   74MYC   4H1512782   3.305   4.874   6.761
   74MYC    C7912783   3.139   4.957   6.888
   74MYC   1H1512784   3.030   4.947   6.891
   74MYC   2H1512785   3.155   5.065   6.893
   74MYC    C7812786   3.205   4.879   7.002
   74MYC   9H1412787   3.313   4.898   6.994
   74MYC   0H1512788   3.186   4.772   6.986
   74MYC    C7712789   3.156   4.932   7.138
   74MYC   7H1412790   3.051   4.914   7.165
   74MYC   8H1412791   3.167   5.041   7.134
   74MYC    C7612792   3.243   4.868   7.248
   74MYC   5H1412793   3.348   4.900   7.238
   74MYC   6H1412794   3.233   4.760   7.234
   74MYC    C7512795   3.195   4.898   7.391
   74MYC   3H1412796   3.085   4.889   7.394
   74MYC   4H1412797   3.216   5.004   7.408
   74MYC    C7412798   3.257   4.805   7.496
   74MYC   1H1412799   3.367   4.805   7.485
   74MYC   2H1412800   3.224   4.703   7.474
   74MYC    C7312801   3.218   4.848   7.638
   74MYC   9H1312802   3.116   4.813   7.659
   74MYC   0H1412803   3.225   4.957   7.646
   74MYC    C7212804   3.298   4.787   7.755
   74MYC   7H1312805   3.408   4.788   7.746
   74MYC   8H1312806   3.270   4.683   7.777
   74MYC    C7112807   3.254   4.850   7.888
   74MYC   5H1312808   3.146   4.846   7.903
   74MYC   6H1312809   3.274   4.958   7.878
   74MYC    C7012810   3.332   4.795   8.008
   74MYC   3H1312811   3.434   4.835   8.005
   74MYC   4H1312812   3.341   4.686   8.000
   74MYC    C6912813   3.273   4.819   8.148
   74MYC   1H1312814   3.175   4.770   8.150
   74MYC   2H1312815   3.258   4.925   8.168
   74MYC    C6812816   3.358   4.761   8.262
   74MYC   9H1212817   3.449   4.821   8.279
   74MYC   0H1312818   3.390   4.663   8.224
   74MYC    C6712819   3.273   4.761   8.390
   74MYC   7H1212820   3.189   4.691   8.381
   74MYC   8H1212821   3.219   4.857   8.393
   74MYC    C6612822   3.355   4.740   8.518
   74MYC   5H1212823   3.419   4.828   8.525
   74MYC   6H1212824   3.412   4.646   8.506
   74MYC    C6512825   3.262   4.740   8.640
   74MYC   3H1212826   3.222   4.641   8.666
   74MYC   4H1212827   3.171   4.797   8.616
   74MYC    C6412828   3.332   4.792   8.767
   74MYC   1H1212829   3.400   4.874   8.745
   74MYC   2H1212830   3.390   4.711   8.813
   74MYC    C6312831   3.233   4.843   8.873
   74MYC   9H1112832   3.137   4.789   8.869
   74MYC   0H1212833   3.207   4.946   8.847
   74MYC    C6212834   3.286   4.840   9.018
   74MYC   7H1112835   3.352   4.927   9.022
   74MYC   8H1112836   3.346   4.751   9.040
   74MYC    C6112837   3.171   4.850   9.119
   74MYC   5H1112838   3.128   4.751   9.140
   74MYC   6H1112839   3.084   4.906   9.082
   74MYC    C6012840   3.226   4.906   9.249
   74MYC   4H1112841   3.226   5.014   9.260
   74MYC    C5812842   3.185   4.841   9.379
   74MYC   1H1112843   3.125   4.751   9.373
   74MYC    C5912844   3.326   4.825   9.328
   74MYC   2H1112845   3.408   4.877   9.377
   74MYC   3H1112846   3.359   4.727   9.294
   74MYC    C5712847   3.175   4.922   9.508
   74MYC   9H1012848   3.084   4.984   9.511
   74MYC   0H1112849   3.247   5.004   9.516
   74MYC    C5612850   3.171   4.822   9.625
   74MYC   7H1012851   3.264   4.766   9.634
   74MYC   8H1012852   3.091   4.748   9.617
   74MYC    C5512853   3.147   4.889   9.762
   74MYC   5H1012854   3.042   4.914   9.779
   74MYC   6H1012855   3.204   4.982   9.773
   74MYC    C5412856   3.180   4.799   9.882
   74MYC   3H1012857   3.289   4.805   9.891
   74MYC   4H1012858   3.156   4.695   9.857
   74MYC    C5312859   3.118   4.852  10.012
   74MYC   1H1012860   3.010   4.832  10.017
   74MYC   2H1012861   3.119   4.961  10.026
   74MYC    C5212862   3.176   4.790  10.140
   74MYC    H9912863   3.284   4.804  10.149
   74MYC   0H1012864   3.165   4.681  10.142
   74MYC    C5112865   3.117   4.848  10.270
   74MYC    H9712866   3.011   4.819  10.271
   74MYC    H9812867   3.129   4.957  10.277
   74MYC    C5012868   3.188   4.795  10.396
   74MYC    H9512869   3.296   4.804  10.378
   74MYC    H9612870   3.169   4.687  10.403
   74MYC    C4912871   3.143   4.867  10.524
   74MYC    H9312872   3.036   4.849  10.538
   74MYC    H9412873   3.162   4.975  10.517
   74MYC    C4812874   3.226   4.810  10.640
   74MYC    H9112875   3.330   4.842  10.626
   74MYC    H9212876   3.229   4.702  10.623
   74MYC    C4712877   3.166   4.858  10.773
   74MYC    H8912878   3.059   4.834  10.766
   74MYC    H9012879   3.166   4.968  10.779
   74MYC    C4612880   3.228   4.793  10.898
   74MYC    H8712881   3.335   4.814  10.903
   74MYC    H8812882   3.219   4.685  10.883
   74MYC    C4512883   3.168   4.822  11.037
   74MYC    H8512884   3.062   4.793  11.046
   74MYC    H8612885   3.176   4.928  11.062
   74MYC    C4412886   3.244   4.741  11.144
   74MYC    H8312887   3.192   4.763  11.238
   74MYC    H8412888   3.348   4.775  11.145
   74MYC    C1812889   3.246   4.589  11.131
   74MYC    H3112890   3.154   4.551  11.089
   74MYC    C1712891   3.366   4.509  11.087
   74MYC    H3012892   3.465   4.550  11.070
   74MYC    C1912893   3.322   4.506  11.231
   74MYC    H3212894   3.391   4.557  11.297
   74MYC    H3312895   3.264   4.430  11.284
   74MYC    C1612896   3.338   4.388  10.998
   74MYC    H2812897   3.239   4.388  10.952
   74MYC    H2912898   3.344   4.299  11.062
   74MYC    C1512899   3.441   4.364  10.886
   74MYC    H2612900   3.414   4.272  10.833
   74MYC    H2712901   3.543   4.340  10.919
   74MYC    C1412902   3.450   4.477  10.782
   74MYC    H2412903   3.455   4.579  10.824
   74MYC    H2512904   3.360   4.471  10.720
   74MYC    C1312905   3.568   4.450  10.687
   74MYC    H2212906   3.564   4.352  10.638
   74MYC    H2312907   3.659   4.459  10.748
   74MYC    C1212908   3.570   4.563  10.583
   74MYC    H2012909   3.552   4.659  10.634
   74MYC    H2112910   3.484   4.539  10.520
   74MYC    C1112911   3.693   4.564  10.491
   74MYC    H1812912   3.712   4.464  10.450
   74MYC    H1912913   3.775   4.592  10.557
   74MYC    C1012914   3.684   4.671  10.380
   74MYC    H1612915   3.783   4.683  10.335
   74MYC    H1712916   3.664   4.765  10.432
   74MYC     C912917   3.580   4.637  10.272
   74MYC    H1412918   3.485   4.687  10.295
   74MYC    H1512919   3.565   4.528  10.270
   74MYC     C812920   3.629   4.672  10.130
   74MYC    H1212921   3.725   4.624  10.103
   74MYC    H1312922   3.664   4.776  10.126
   74MYC     C712923   3.533   4.650  10.013
   74MYC    H1012924   3.474   4.742  10.008
   74MYC    H1112925   3.461   4.573  10.047
   74MYC     C612926   3.598   4.619   9.877
   74MYC     H812927   3.656   4.527   9.889
   74MYC     H912928   3.667   4.702   9.854
   74MYC     C512929   3.493   4.600   9.766
   74MYC     H612930   3.444   4.694   9.739
   74MYC     H712931   3.410   4.544   9.811
   74MYC     C412932   3.557   4.524   9.649
   74MYC     H412933   3.472   4.484   9.593
   74MYC     H512934   3.621   4.441   9.681
   74MYC     C212935   3.630   4.620   9.553
   74MYC     H212936   3.550   4.628   9.477
   74MYC     O312937   3.651   4.748   9.612
   74MYC     H312938   3.733   4.739   9.664
   74MYC     C112939   3.757   4.561   9.490
   74MYC     H112940   3.724   4.478   9.426
   74MYC    C8112941   3.859   4.518   9.595
   74MYC    O8212942   3.946   4.588   9.643
   74MYC    O8312943   3.858   4.384   9.617
   74MYC   6H1512944   3.940   4.368   9.667
   74MYC    C2012945   3.815   4.657   9.384
   74MYC    H3412946   3.835   4.751   9.437
   74MYC    H3512947   3.909   4.614   9.348
   74MYC    C2112948   3.738   4.689   9.255
   74MYC    H3612949   3.775   4.617   9.180
   74MYC    H3712950   3.633   4.663   9.272
   74MYC    C2212951   3.745   4.832   9.199
   74MYC    H3812952   3.678   4.891   9.263
   74MYC    H3912953   3.847   4.873   9.210
   74MYC    C2312954   3.703   4.855   9.053
   74MYC    H4012955   3.595   4.867   9.037
   74MYC    H4112956   3.745   4.952   9.027
   74MYC    C2412957   3.750   4.746   8.955
   74MYC    H4212958   3.855   4.720   8.975
   74MYC    H4312959   3.699   4.649   8.960
   74MYC    C2512960   3.751   4.796   8.809
   74MYC    H4412961   3.651   4.836   8.789
   74MYC    H4512962   3.814   4.886   8.804
   74MYC    C2612963   3.781   4.687   8.705
   74MYC    H4612964   3.880   4.648   8.731
   74MYC    H4712965   3.707   4.606   8.715
   74MYC    C2712966   3.793   4.746   8.563
   74MYC    H4812967   3.708   4.810   8.538
   74MYC    H4912968   3.882   4.810   8.553
   74MYC    C2812969   3.800   4.640   8.452
   74MYC    H5012970   3.902   4.599   8.454
   74MYC    H5112971   3.726   4.560   8.460
   74MYC    C2912972   3.779   4.705   8.314
   74MYC    H5212973   3.675   4.741   8.311
   74MYC    H5312974   3.850   4.787   8.298
   74MYC    C3012975   3.791   4.602   8.199
   74MYC    H5412976   3.896   4.578   8.180
   74MYC    H5512977   3.747   4.508   8.236
   74MYC    C3112978   3.720   4.647   8.070
   74MYC    H5612979   3.613   4.639   8.091
   74MYC    H5712980   3.753   4.750   8.052
   74MYC    C3212981   3.750   4.564   7.944
   74MYC    H5812982   3.856   4.569   7.917
   74MYC    H5912983   3.736   4.456   7.961
   74MYC    C3312984   3.658   4.605   7.827
   74MYC    H6012985   3.564   4.550   7.842
   74MYC    H6112986   3.621   4.708   7.831
   74MYC    C3412987   3.715   4.558   7.692
   74MYC    H6212988   3.820   4.590   7.683
   74MYC    H6312989   3.723   4.449   7.690
   74MYC    C3512990   3.633   4.602   7.570
   74MYC    H6412991   3.526   4.582   7.578
   74MYC    H6512992   3.641   4.712   7.572
   74MYC    C3612993   3.687   4.541   7.439
   74MYC    H6612994   3.793   4.568   7.436
   74MYC    H6712995   3.680   4.432   7.450
   74MYC    C3712996   3.629   4.599   7.309
   74MYC    H6812997   3.521   4.584   7.311
   74MYC    H6912998   3.649   4.706   7.321
   74MYC    C3812999   3.699   4.546   7.182
   74MYC    H7013000   3.807   4.547   7.197
   74MYC    H7113001   3.680   4.439   7.170
   74MYC    C3913002   3.662   4.630   7.058
   74MYC    H7213003   3.554   4.621   7.040
   74MYC    H7313004   3.671   4.735   7.090
   74MYC    C4013005   3.750   4.602   6.935
   74MYC    H7413006   3.853   4.619   6.969
   74MYC    H7513007   3.741   4.496   6.910
   74MYC    C4113008   3.717   4.694   6.816
   74MYC    H7613009   3.611   4.679   6.794
   74MYC    H7713010   3.726   4.794   6.860
   74MYC    C4213011   3.794   4.667   6.685
   74MYC    H7813012   3.899   4.692   6.706
   74MYC    H7913013   3.781   4.561   6.659
   74MYC    C4313014   3.747   4.754   6.568
   74MYC    H8013015   3.801   4.732   6.475
   74MYC    H8113016   3.767   4.860   6.586
   74MYC    H8213017   3.639   4.752   6.548
   75MYC   5H1513018   4.197   4.831   6.650
   75MYC    C8013019   4.258   4.795   6.734
   75MYC   3H1513020   4.307   4.698   6.717
   75MYC   4H1513021   4.341   4.868   6.733
   75MYC    C7913022   4.173   4.815   6.860
   75MYC   1H1513023   4.086   4.748   6.865
   75MYC   2H1513024   4.143   4.920   6.857
   75MYC    C7813025   4.241   4.769   6.990
   75MYC   9H1413026   4.346   4.800   6.986
   75MYC   0H1513027   4.246   4.660   7.002
   75MYC    C7713028   4.171   4.824   7.116
   75MYC   7H1413029   4.068   4.787   7.111
   75MYC   8H1413030   4.168   4.933   7.110
   75MYC    C7613031   4.236   4.763   7.242
   75MYC   5H1413032   4.336   4.806   7.242
   75MYC   6H1413033   4.237   4.653   7.242
   75MYC    C7513034   4.171   4.815   7.371
   75MYC   3H1413035   4.063   4.797   7.371
   75MYC   4H1413036   4.177   4.924   7.378
   75MYC    C7413037   4.220   4.745   7.499
   75MYC   1H1413038   4.328   4.749   7.518
   75MYC   2H1413039   4.193   4.639   7.506
   75MYC    C7313040   4.164   4.810   7.627
   75MYC   9H1313041   4.055   4.801   7.624
   75MYC   0H1413042   4.181   4.919   7.622
   75MYC    C7213043   4.236   4.754   7.751
   75MYC   7H1313044   4.336   4.799   7.758
   75MYC   8H1313045   4.245   4.645   7.742
   75MYC    C7113046   4.160   4.781   7.881
   75MYC   5H1313047   4.082   4.705   7.895
   75MYC   6H1313048   4.117   4.881   7.863
   75MYC    C7013049   4.260   4.774   7.998
   75MYC   3H1313050   4.330   4.858   7.990
   75MYC   4H1313051   4.315   4.680   7.996
   75MYC    C6913052   4.192   4.789   8.135
   75MYC   1H1313053   4.127   4.703   8.152
   75MYC   2H1313054   4.127   4.877   8.137
   75MYC    C6813055   4.295   4.800   8.250
   75MYC   9H1213056   4.367   4.882   8.243
   75MYC   0H1313057   4.356   4.709   8.254
   75MYC    C6713058   4.215   4.818   8.380
   75MYC   7H1213059   4.161   4.724   8.399
   75MYC   8H1213060   4.153   4.907   8.371
   75MYC    C6613061   4.304   4.835   8.504
   75MYC   5H1213062   4.367   4.923   8.488
   75MYC   6H1213063   4.367   4.747   8.516
   75MYC    C6513064   4.214   4.844   8.629
   75MYC   3H1213065   4.157   4.750   8.633
   75MYC   4H1213066   4.138   4.920   8.611
   75MYC    C6413067   4.295   4.862   8.758
   75MYC   1H1213068   4.370   4.943   8.757
   75MYC   2H1213069   4.342   4.766   8.780
   75MYC    C6313070   4.199   4.896   8.873
   75MYC   9H1113071   4.127   4.815   8.888
   75MYC   0H1213072   4.141   4.989   8.858
   75MYC    C6213073   4.282   4.905   9.002
   75MYC   7H1113074   4.347   4.992   8.988
   75MYC   8H1113075   4.340   4.814   9.022
   75MYC    C6113076   4.202   4.930   9.132
   75MYC   5H1113077   4.111   4.869   9.130
   75MYC   6H1113078   4.167   5.034   9.132
   75MYC    C6013079   4.290   4.918   9.256
   75MYC   4H1113080   4.381   4.977   9.260
   75MYC    C5813081   4.215   4.900   9.385
   75MYC   1H1113082   4.107   4.884   9.379
   75MYC    C5913083   4.293   4.785   9.327
   75MYC   2H1113084   4.386   4.761   9.376
   75MYC   3H1113085   4.233   4.707   9.280
   75MYC    C5713086   4.256   4.955   9.521
   75MYC   9H1013087   4.215   5.057   9.524
   75MYC   0H1113088   4.363   4.974   9.530
   75MYC    C5613089   4.208   4.874   9.643
   75MYC   7H1013090   4.285   4.799   9.667
   75MYC   8H1013091   4.121   4.813   9.616
   75MYC    C5513092   4.180   4.957   9.770
   75MYC   5H1013093   4.089   5.016   9.757
   75MYC   6H1013094   4.269   5.019   9.787
   75MYC    C5413095   4.153   4.869   9.893
   75MYC   3H1013096   4.253   4.856   9.935
   75MYC   4H1013097   4.110   4.771   9.869
   75MYC    C5313098   4.067   4.936  10.003
   75MYC   1H1013099   3.963   4.941   9.969
   75MYC   2H1013100   4.097   5.038  10.030
   75MYC    C5213101   4.065   4.849  10.129
   75MYC    H9913102   4.171   4.833  10.152
   75MYC   0H1013103   4.022   4.748  10.121
   75MYC    C5113104   3.997   4.916  10.250
   75MYC    H9713105   3.890   4.922  10.224
   75MYC    H9813106   4.027   5.021  10.260
   75MYC    C5013107   4.036   4.843  10.379
   75MYC    H9513108   4.146   4.839  10.384
   75MYC    H9613109   4.006   4.738  10.368
   75MYC    C4913110   3.995   4.906  10.514
   75MYC    H9313111   3.891   4.875  10.533
   75MYC    H9413112   3.989   5.014  10.495
   75MYC    C4813113   4.095   4.889  10.629
   75MYC    H9113114   4.176   4.956  10.598
   75MYC    H9213115   4.126   4.784  10.638
   75MYC    C4713116   4.045   4.930  10.769
   75MYC    H8913117   3.991   4.843  10.808
   75MYC    H9013118   3.983   5.021  10.775
   75MYC    C4613119   4.173   4.943  10.853
   75MYC    H8713120   4.232   5.028  10.817
   75MYC    H8813121   4.241   4.858  10.849
   75MYC    C4513122   4.143   4.985  10.999
   75MYC    H8513123   4.085   4.902  11.040
   75MYC    H8613124   4.082   5.075  10.986
   75MYC    C4413125   4.265   5.026  11.083
   75MYC    H8313126   4.232   5.083  11.170
   75MYC    H8413127   4.315   5.099  11.017
   75MYC    C1813128   4.355   4.911  11.127
   75MYC    H3113129   4.321   4.814  11.091
   75MYC    C1713130   4.503   4.937  11.140
   75MYC    H3013131   4.527   5.040  11.119
   75MYC    C1913132   4.421   4.902  11.262
   75MYC    H3213133   4.397   4.976  11.338
   75MYC    H3313134   4.426   4.800  11.299
   75MYC    C1613135   4.608   4.837  11.092
   75MYC    H2813136   4.567   4.736  11.110
   75MYC    H2913137   4.688   4.840  11.167
   75MYC    C1513138   4.652   4.869  10.949
   75MYC    H2613139   4.736   4.805  10.918
   75MYC    H2713140   4.689   4.972  10.945
   75MYC    C1413141   4.538   4.854  10.846
   75MYC    H2413142   4.465   4.935  10.858
   75MYC    H2513143   4.492   4.762  10.885
   75MYC    C1313144   4.576   4.835  10.698
   75MYC    H2213145   4.617   4.734  10.690
   75MYC    H2313146   4.659   4.905  10.679
   75MYC    C1213147   4.458   4.857  10.601
   75MYC    H2013148   4.413   4.957  10.605
   75MYC    H2113149   4.376   4.793  10.635
   75MYC    C1113150   4.483   4.807  10.458
   75MYC    H1813151   4.401   4.846  10.397
   75MYC    H1913152   4.487   4.698  10.451
   75MYC    C1013153   4.609   4.855  10.384
   75MYC    H1613154   4.695   4.817  10.441
   75MYC    H1713155   4.623   4.963  10.400
   75MYC     C913156   4.610   4.812  10.236
   75MYC    H1413157   4.519   4.847  10.186
   75MYC    H1513158   4.608   4.703  10.226
   75MYC     C813159   4.732   4.868  10.162
   75MYC    H1213160   4.826   4.831  10.205
   75MYC    H1313161   4.733   4.978  10.166
   75MYC     C713162   4.723   4.838  10.011
   75MYC    H1013163   4.687   4.931   9.965
   75MYC    H1113164   4.648   4.759   9.999
   75MYC     C613165   4.861   4.789   9.964
   75MYC     H813166   4.890   4.699  10.020
   75MYC     H913167   4.940   4.863   9.983
   75MYC     C513168   4.861   4.752   9.815
   75MYC     H613169   4.962   4.714   9.795
   75MYC     H713170   4.845   4.841   9.752
   75MYC     C413171   4.757   4.649   9.768
   75MYC     H413172   4.657   4.693   9.760
   75MYC     H513173   4.765   4.575   9.849
   75MYC     C213174   4.783   4.588   9.629
   75MYC     H213175   4.745   4.662   9.557
   75MYC     O313176   4.920   4.558   9.607
   75MYC     H313177   4.935   4.463   9.619
   75MYC     C113178   4.696   4.468   9.589
   75MYC     H113179   4.591   4.501   9.591
   75MYC    C8113180   4.711   4.353   9.688
   75MYC    O8213181   4.778   4.253   9.666
   75MYC    O8313182   4.613   4.350   9.781
   75MYC   6H1513183   4.619   4.261   9.820
   75MYC    C2013184   4.726   4.415   9.448
   75MYC    H3413185   4.835   4.417   9.431
   75MYC    H3513186   4.690   4.313   9.429
   75MYC    C2113187   4.664   4.505   9.340
   75MYC    H3613188   4.555   4.509   9.353
   75MYC    H3713189   4.694   4.609   9.357
   75MYC    C2213190   4.701   4.455   9.199
   75MYC    H3813191   4.810   4.444   9.194
   75MYC    H3913192   4.648   4.362   9.176
   75MYC    C2313193   4.645   4.542   9.084
   75MYC    H4013194   4.536   4.541   9.090
   75MYC    H4113195   4.661   4.648   9.107
   75MYC    C2413196   4.710   4.491   8.954
   75MYC    H4213197   4.816   4.522   8.951
   75MYC    H4313198   4.732   4.384   8.960
   75MYC    C2513199   4.629   4.525   8.828
   75MYC    H4413200   4.530   4.485   8.851
   75MYC    H4513201   4.616   4.633   8.818
   75MYC    C2613202   4.669   4.471   8.689
   75MYC    H4613203   4.776   4.450   8.683
   75MYC    H4713204   4.622   4.373   8.678
   75MYC    C2713205   4.618   4.543   8.563
   75MYC    H4813206   4.510   4.560   8.564
   75MYC    H4913207   4.658   4.645   8.562
   75MYC    C2813208   4.656   4.464   8.436
   75MYC    H5013209   4.763   4.483   8.429
   75MYC    H5113210   4.641   4.358   8.457
   75MYC    C2913211   4.581   4.516   8.312
   75MYC    H5213212   4.475   4.488   8.307
   75MYC    H5313213   4.582   4.626   8.320
   75MYC    C3013214   4.661   4.473   8.188
   75MYC    H5413215   4.761   4.518   8.198
   75MYC    H5513216   4.678   4.365   8.187
   75MYC    C3113217   4.597   4.523   8.057
   75MYC    H5613218   4.493   4.490   8.046
   75MYC    H5713219   4.586   4.632   8.056
   75MYC    C3213220   4.683   4.486   7.935
   75MYC    H5813221   4.781   4.534   7.947
   75MYC    H5913222   4.694   4.377   7.931
   75MYC    C3313223   4.622   4.533   7.802
   75MYC    H6013224   4.526   4.480   7.792
   75MYC    H6113225   4.596   4.639   7.813
   75MYC    C3413226   4.711   4.503   7.681
   75MYC    H6213227   4.806   4.558   7.683
   75MYC    H6313228   4.730   4.395   7.678
   75MYC    C3513229   4.640   4.531   7.548
   75MYC    H6413230   4.549   4.472   7.529
   75MYC    H6513231   4.615   4.637   7.553
   75MYC    C3613232   4.728   4.498   7.426
   75MYC    H6613233   4.811   4.570   7.422
   75MYC    H6713234   4.780   4.404   7.446
   75MYC    C3713235   4.648   4.483   7.295
   75MYC    H6813236   4.600   4.385   7.296
   75MYC    H6913237   4.573   4.563   7.293
   75MYC    C3813238   4.728   4.493   7.164
   75MYC    H7013239   4.782   4.585   7.142
   75MYC    H7113240   4.805   4.415   7.158
   75MYC    C3913241   4.636   4.467   7.043
   75MYC    H7213242   4.595   4.366   7.050
   75MYC    H7313243   4.550   4.535   7.044
   75MYC    C4013244   4.705   4.483   6.906
   75MYC    H7413245   4.735   4.587   6.889
   75MYC    H7513246   4.790   4.415   6.897
   75MYC    C4113247   4.613   4.428   6.796
   75MYC    H7613248   4.584   4.324   6.810
   75MYC    H7713249   4.521   4.488   6.790
   75MYC    C4213250   4.678   4.436   6.656
   75MYC    H7813251   4.718   4.535   6.632
   75MYC    H7913252   4.767   4.373   6.654
   75MYC    C4313253   4.584   4.379   6.549
   75MYC    H8013254   4.620   4.391   6.446
   75MYC    H8113255   4.505   4.455   6.544
   75MYC    H8213256   4.543   4.281   6.577
   76MYC   5H1513257   5.192   4.457   6.664
   76MYC    C8013258   5.124   4.468   6.749
   76MYC   3H1513259   5.092   4.573   6.751
   76MYC   4H1513260   5.032   4.409   6.736
   76MYC    C7913261   5.204   4.439   6.877
   76MYC   1H1513262   5.288   4.509   6.888
   76MYC   2H1513263   5.247   4.338   6.877
   76MYC    C7813264   5.117   4.460   7.002
   76MYC   9H1413265   5.035   4.388   6.994
   76MYC   0H1513266   5.069   4.559   7.006
   76MYC    C7713267   5.196   4.440   7.132
   76MYC   7H1413268   5.274   4.516   7.140
   76MYC   8H1413269   5.250   4.345   7.132
   76MYC    C7613270   5.106   4.453   7.256
   76MYC   5H1413271   5.030   4.377   7.235
   76MYC   6H1413272   5.058   4.551   7.270
   76MYC    C7513273   5.185   4.407   7.380
   76MYC   3H1413274   5.277   4.467   7.389
   76MYC   4H1413275   5.207   4.300   7.366
   76MYC    C7413276   5.089   4.426   7.498
   76MYC   1H1413277   4.989   4.385   7.479
   76MYC   2H1413278   5.074   4.532   7.522
   76MYC    C7313279   5.146   4.367   7.628
   76MYC   9H1313280   5.252   4.391   7.643
   76MYC   0H1413281   5.148   4.259   7.606
   76MYC    C7213282   5.072   4.399   7.758
   76MYC   7H1313283   4.969   4.361   7.755
   76MYC   8H1313284   5.067   4.507   7.778
   76MYC    C7113285   5.148   4.356   7.885
   76MYC   5H1313286   5.249   4.399   7.890
   76MYC   6H1313287   5.158   4.247   7.878
   76MYC    C7013288   5.070   4.397   8.011
   76MYC   3H1313289   4.980   4.335   8.002
   76MYC   4H1313290   5.039   4.502   8.017
   76MYC    C6913291   5.157   4.364   8.133
   76MYC   1H1313292   5.245   4.430   8.126
   76MYC   2H1313293   5.186   4.259   8.135
   76MYC    C6813294   5.092   4.388   8.270
   76MYC   9H1213295   5.000   4.328   8.281
   76MYC   0H1313296   5.059   4.491   8.284
   76MYC    C6713297   5.180   4.347   8.389
   76MYC   7H1213298   5.264   4.417   8.396
   76MYC   8H1213299   5.214   4.243   8.376
   76MYC    C6613300   5.106   4.346   8.524
   76MYC   5H1213301   5.037   4.260   8.524
   76MYC   6H1213302   5.033   4.427   8.537
   76MYC    C6513303   5.193   4.330   8.650
   76MYC   3H1213304   5.256   4.419   8.665
   76MYC   4H1213305   5.257   4.241   8.649
   76MYC    C6413306   5.102   4.323   8.774
   76MYC   1H1213307   5.030   4.242   8.754
   76MYC   2H1213308   5.045   4.415   8.789
   76MYC    C6313309   5.178   4.286   8.903
   76MYC   9H1113310   5.267   4.351   8.907
   76MYC   0H1213311   5.207   4.181   8.889
   76MYC    C6213312   5.102   4.309   9.035
   76MYC   7H1113313   5.030   4.227   9.030
   76MYC   8H1113314   5.063   4.411   9.035
   76MYC    C6113315   5.190   4.293   9.160
   76MYC   5H1113316   5.284   4.349   9.147
   76MYC   6H1113317   5.218   4.187   9.166
   76MYC    C6013318   5.113   4.327   9.286
   76MYC   4H1113319   5.021   4.271   9.289
   76MYC    C5813320   5.185   4.351   9.417
   76MYC   1H1113321   5.294   4.348   9.421
   76MYC    C5913322   5.129   4.468   9.340
   76MYC   2H1113323   5.034   4.515   9.365
   76MYC   3H1113324   5.205   4.536   9.304
   76MYC    C5713325   5.114   4.303   9.543
   76MYC   9H1013326   5.152   4.202   9.564
   76MYC   0H1113327   5.006   4.303   9.528
   76MYC    C5613328   5.161   4.381   9.667
   76MYC   7H1013329   5.148   4.489   9.648
   76MYC   8H1013330   5.267   4.359   9.683
   76MYC    C5513331   5.079   4.338   9.790
   76MYC   5H1013332   5.101   4.235   9.822
   76MYC   6H1013333   4.975   4.349   9.757
   76MYC    C5413334   5.102   4.439   9.904
   76MYC   3H1013335   5.061   4.536   9.873
   76MYC   4H1013336   5.210   4.447   9.921
   76MYC    C5313337   5.029   4.385  10.028
   76MYC   1H1013338   5.061   4.283  10.055
   76MYC   2H1013339   4.920   4.386  10.017
   76MYC    C5213340   5.055   4.474  10.150
   76MYC    H9913341   5.073   4.578  10.118
   76MYC   0H1013342   5.158   4.465  10.187
   76MYC    C5113343   4.954   4.461  10.265
   76MYC    H9713344   4.950   4.358  10.301
   76MYC    H9813345   4.856   4.494  10.226
   76MYC    C5013346   4.999   4.561  10.374
   76MYC    H9513347   4.990   4.665  10.342
   76MYC    H9613348   5.106   4.538  10.387
   76MYC    C4913349   4.932   4.549  10.512
   76MYC    H9313350   4.895   4.449  10.537
   76MYC    H9413351   4.844   4.614  10.509
   76MYC    C4813352   5.027   4.593  10.624
   76MYC    H9113353   5.072   4.690  10.595
   76MYC    H9213354   5.113   4.526  10.637
   76MYC    C4713355   4.957   4.609  10.760
   76MYC    H8913356   4.900   4.518  10.782
   76MYC    H9013357   4.889   4.695  10.754
   76MYC    C4613358   5.062   4.642  10.868
   76MYC    H8713359   5.124   4.723  10.828
   76MYC    H8813360   5.123   4.552  10.881
   76MYC    C4513361   5.007   4.687  11.005
   76MYC    H8513362   4.944   4.612  11.053
   76MYC    H8613363   4.936   4.768  10.984
   76MYC    C4413364   5.121   4.736  11.096
   76MYC    H8313365   5.090   4.815  11.164
   76MYC    H8413366   5.192   4.792  11.034
   76MYC    C1813367   5.201   4.620  11.155
   76MYC    H3113368   5.231   4.541  11.088
   76MYC    C1713369   5.321   4.655  11.239
   76MYC    H3013370   5.351   4.758  11.258
   76MYC    C1913371   5.198   4.597  11.304
   76MYC    H3213372   5.130   4.666  11.354
   76MYC    H3313373   5.208   4.498  11.347
   76MYC    C1613374   5.450   4.574  11.239
   76MYC    H2813375   5.434   4.468  11.214
   76MYC    H2913376   5.477   4.566  11.345
   76MYC    C1513377   5.559   4.638  11.151
   76MYC    H2613378   5.646   4.574  11.171
   76MYC    H2713379   5.589   4.737  11.186
   76MYC    C1413380   5.543   4.624  10.998
   76MYC    H2413381   5.447   4.572  10.988
   76MYC    H2513382   5.622   4.559  10.958
   76MYC    C1313383   5.547   4.763  10.933
   76MYC    H2213384   5.649   4.787  10.901
   76MYC    H2313385   5.533   4.845  11.003
   76MYC    C1213386   5.447   4.789  10.819
   76MYC    H2013387   5.346   4.775  10.860
   76MYC    H2113388   5.468   4.710  10.746
   76MYC    C1113389   5.458   4.928  10.754
   76MYC    H1813390   5.562   4.951  10.726
   76MYC    H1913391   5.449   4.997  10.839
   76MYC    C1013392   5.362   4.959  10.638
   76MYC    H1613393   5.403   5.051  10.594
   76MYC    H1713394   5.263   4.981  10.680
   76MYC     C913395   5.341   4.850  10.531
   76MYC    H1413396   5.280   4.773  10.581
   76MYC    H1513397   5.441   4.816  10.505
   76MYC     C813398   5.267   4.898  10.405
   76MYC    H1213399   5.306   4.994  10.369
   76MYC    H1313400   5.161   4.919  10.424
   76MYC     C713401   5.272   4.798  10.288
   76MYC    H1013402   5.196   4.720  10.298
   76MYC    H1113403   5.371   4.750  10.288
   76MYC     C613404   5.262   4.859  10.147
   76MYC     H813405   5.332   4.944  10.151
   76MYC     H913406   5.162   4.901  10.132
   76MYC     C513407   5.304   4.765  10.034
   76MYC     H613408   5.215   4.707  10.007
   76MYC     H713409   5.382   4.698  10.073
   76MYC     C413410   5.362   4.827   9.906
   76MYC     H413411   5.459   4.779   9.887
   76MYC     H513412   5.378   4.935   9.921
   76MYC     C213413   5.269   4.831   9.783
   76MYC     H213414   5.230   4.730   9.767
   76MYC     O313415   5.164   4.925   9.804
   76MYC     H313416   5.175   4.956   9.896
   76MYC     C113417   5.339   4.880   9.655
   76MYC     H113418   5.407   4.795   9.643
   76MYC    C8113419   5.423   5.006   9.669
   76MYC    O8213420   5.389   5.118   9.635
   76MYC    O8313421   5.550   4.983   9.708
   76MYC   6H1513422   5.581   5.073   9.730
   76MYC    C2013423   5.256   4.893   9.527
   76MYC    H3413424   5.166   4.830   9.526
   76MYC    H3513425   5.212   4.992   9.513
   76MYC    C2113426   5.322   4.852   9.395
   76MYC    H3613427   5.428   4.825   9.406
   76MYC    H3713428   5.271   4.767   9.347
   76MYC    C2213429   5.312   4.949   9.276
   76MYC    H3813430   5.212   4.994   9.276
   76MYC    H3913431   5.375   5.038   9.284
   76MYC    C2313432   5.342   4.882   9.141
   76MYC    H4013433   5.429   4.817   9.148
   76MYC    H4113434   5.252   4.823   9.119
   76MYC    C2413435   5.369   4.976   9.022
   76MYC    H4213436   5.325   5.075   9.043
   76MYC    H4313437   5.477   4.997   9.028
   76MYC    C2513438   5.326   4.918   8.886
   76MYC    H4413439   5.380   4.822   8.880
   76MYC    H4513440   5.218   4.898   8.890
   76MYC    C2613441   5.360   4.999   8.760
   76MYC    H4613442   5.307   5.095   8.766
   76MYC    H4713443   5.468   5.017   8.757
   76MYC    C2713444   5.316   4.938   8.626
   76MYC    H4813445   5.337   4.830   8.629
   76MYC    H4913446   5.207   4.943   8.616
   76MYC    C2813447   5.381   5.000   8.501
   76MYC    H5013448   5.366   5.109   8.495
   76MYC    H5113449   5.489   4.984   8.504
   76MYC    C2913450   5.327   4.941   8.370
   76MYC    H5213451   5.355   4.835   8.372
   76MYC    H5313452   5.217   4.938   8.367
   76MYC    C3013453   5.371   5.004   8.237
   76MYC    H5413454   5.344   5.110   8.242
   76MYC    H5513455   5.480   5.003   8.227
   76MYC    C3113456   5.312   4.936   8.113
   76MYC    H5613457   5.307   4.828   8.132
   76MYC    H5713458   5.206   4.961   8.100
   76MYC    C3213459   5.385   4.962   7.980
   76MYC    H5813460   5.372   5.069   7.959
   76MYC    H5913461   5.495   4.951   7.984
   76MYC    C3313462   5.328   4.870   7.871
   76MYC    H6013463   5.366   4.767   7.871
   76MYC    H6113464   5.221   4.859   7.891
   76MYC    C3413465   5.363   4.923   7.731
   76MYC    H6213466   5.315   5.022   7.729
   76MYC    H6313467   5.471   4.935   7.720
   76MYC    C3513468   5.314   4.847   7.606
   76MYC    H6413469   5.348   4.744   7.593
   76MYC    H6513470   5.207   4.835   7.625
   76MYC    C3613471   5.342   4.931   7.480
   76MYC    H6613472   5.299   5.031   7.483
   76MYC    H6713473   5.450   4.951   7.475
   76MYC    C3713474   5.310   4.855   7.350
   76MYC    H6813475   5.395   4.786   7.343
   76MYC    H6913476   5.223   4.789   7.358
   76MYC    C3813477   5.305   4.938   7.220
   76MYC    H7013478   5.219   5.005   7.231
   76MYC    H7113479   5.387   5.011   7.212
   76MYC    C3913480   5.290   4.852   7.094
   76MYC    H7213481   5.351   4.761   7.101
   76MYC    H7313482   5.188   4.815   7.078
   76MYC    C4013483   5.341   4.918   6.964
   76MYC    H7413484   5.277   5.002   6.936
   76MYC    H7513485   5.445   4.951   6.974
   76MYC    C4113486   5.340   4.816   6.848
   76MYC    H7613487   5.414   4.737   6.866
   76MYC    H7713488   5.247   4.761   6.859
   76MYC    C4213489   5.357   4.888   6.713
   76MYC    H7813490   5.267   4.949   6.697
   76MYC    H7913491   5.443   4.955   6.724
   76MYC    C4313492   5.371   4.791   6.595
   76MYC    H8013493   5.406   4.841   6.504
   76MYC    H8113494   5.274   4.748   6.570
   76MYC    H8213495   5.443   4.712   6.620
   77MYC   5H1513496   6.189   5.208   6.660
   77MYC    C8013497   6.143   5.163   6.749
   77MYC   3H1513498   6.035   5.158   6.733
   77MYC   4H1513499   6.180   5.060   6.762
   77MYC    C7913500   6.184   5.249   6.870
   77MYC   1H1513501   6.098   5.316   6.884
   77MYC   2H1513502   6.269   5.313   6.845
   77MYC    C7813503   6.206   5.173   7.001
   77MYC   9H1413504   6.299   5.117   6.985
   77MYC   0H1513505   6.120   5.106   7.015
   77MYC    C7713506   6.223   5.268   7.122
   77MYC   7H1413507   6.150   5.348   7.108
   77MYC   8H1413508   6.317   5.323   7.111
   77MYC    C7613509   6.205   5.208   7.262
   77MYC   5H1413510   6.282   5.132   7.275
   77MYC   6H1413511   6.108   5.156   7.264
   77MYC    C7513512   6.204   5.296   7.389
   77MYC   3H1413513   6.116   5.360   7.381
   77MYC   4H1413514   6.285   5.370   7.393
   77MYC    C7413515   6.206   5.202   7.510
   77MYC   1H1413516   6.307   5.160   7.522
   77MYC   2H1413517   6.135   5.120   7.498
   77MYC    C7313518   6.173   5.283   7.636
   77MYC   9H1313519   6.071   5.324   7.641
   77MYC   0H1413520   6.229   5.377   7.632
   77MYC    C7213521   6.195   5.192   7.758
   77MYC   7H1313522   6.297   5.152   7.744
   77MYC   8H1313523   6.126   5.106   7.757
   77MYC    C7113524   6.183   5.271   7.889
   77MYC   5H1313525   6.082   5.308   7.910
   77MYC   6H1313526   6.251   5.357   7.890
   77MYC    C7013527   6.216   5.170   8.001
   77MYC   3H1313528   6.325   5.153   7.998
   77MYC   4H1313529   6.178   5.067   7.993
   77MYC    C6913530   6.169   5.222   8.137
   77MYC   1H1313531   6.065   5.258   8.136
   77MYC   2H1313532   6.234   5.304   8.168
   77MYC    C6813533   6.188   5.119   8.251
   77MYC   9H1213534   6.293   5.132   8.280
   77MYC   0H1313535   6.177   5.017   8.212
   77MYC    C6713536   6.097   5.142   8.372
   77MYC   7H1213537   6.002   5.095   8.343
   77MYC   8H1213538   6.084   5.251   8.379
   77MYC    C6613539   6.150   5.086   8.506
   77MYC   5H1213540   6.246   5.135   8.523
   77MYC   6H1213541   6.173   4.980   8.492
   77MYC    C6513542   6.059   5.114   8.627
   77MYC   3H1213543   5.965   5.059   8.623
   77MYC   4H1213544   6.040   5.222   8.625
   77MYC    C6413545   6.122   5.079   8.763
   77MYC   1H1213546   6.217   5.133   8.768
   77MYC   2H1213547   6.147   4.972   8.766
   77MYC    C6313548   6.040   5.114   8.888
   77MYC   9H1113549   5.960   5.040   8.886
   77MYC   0H1213550   5.997   5.215   8.889
   77MYC    C6213551   6.129   5.103   9.013
   77MYC   7H1113552   6.212   5.172   8.996
   77MYC   8H1113553   6.174   5.003   9.018
   77MYC    C6113554   6.056   5.137   9.143
   77MYC   5H1113555   5.984   5.061   9.175
   77MYC   6H1113556   6.001   5.231   9.131
   77MYC    C6013557   6.160   5.155   9.253
   77MYC   4H1113558   6.251   5.213   9.240
   77MYC    C5813559   6.123   5.150   9.399
   77MYC   1H1113560   6.019   5.137   9.427
   77MYC    C5913561   6.185   5.029   9.333
   77MYC   2H1113562   6.290   5.010   9.351
   77MYC   3H1113563   6.121   4.943   9.316
   77MYC    C5713564   6.207   5.227   9.500
   77MYC   9H1013565   6.160   5.325   9.510
   77MYC   0H1113566   6.312   5.244   9.473
   77MYC    C5613567   6.210   5.145   9.631
   77MYC   7H1013568   6.262   5.052   9.604
   77MYC   8H1013569   6.112   5.108   9.662
   77MYC    C5513570   6.286   5.212   9.746
   77MYC   5H1013571   6.210   5.268   9.802
   77MYC   6H1013572   6.365   5.281   9.714
   77MYC    C5413573   6.362   5.122   9.845
   77MYC   3H1013574   6.465   5.105   9.814
   77MYC   4H1013575   6.310   5.026   9.840
   77MYC    C5313576   6.360   5.163   9.994
   77MYC   1H1013577   6.290   5.247  10.006
   77MYC   2H1013578   6.458   5.199  10.025
   77MYC    C5213579   6.307   5.052  10.086
   77MYC    H9913580   6.370   4.962  10.083
   77MYC   0H1013581   6.205   5.019  10.065
   77MYC    C5113582   6.313   5.118  10.225
   77MYC    H9713583   6.257   5.212  10.226
   77MYC    H9813584   6.416   5.150  10.245
   77MYC    C5013585   6.264   5.029  10.341
   77MYC    H9513586   6.327   4.942  10.363
   77MYC    H9613587   6.166   4.990  10.314
   77MYC    C4913588   6.246   5.123  10.462
   77MYC    H9313589   6.189   5.216  10.452
   77MYC    H9413590   6.347   5.161  10.481
   77MYC    C4813591   6.199   5.049  10.588
   77MYC    H9113592   6.257   4.957  10.599
   77MYC    H9213593   6.092   5.026  10.576
   77MYC    C4713594   6.202   5.121  10.724
   77MYC    H8913595   6.147   5.216  10.719
   77MYC    H9013596   6.308   5.144  10.740
   77MYC    C4613597   6.138   5.031  10.831
   77MYC    H8713598   6.190   4.935  10.841
   77MYC    H8813599   6.038   5.001  10.799
   77MYC    C4513600   6.138   5.092  10.972
   77MYC    H8513601   6.053   5.160  10.982
   77MYC    H8613602   6.229   5.150  10.991
   77MYC    C4413603   6.143   4.983  11.080
   77MYC    H8313604   6.154   5.035  11.176
   77MYC    H8413605   6.236   4.925  11.073
   77MYC    C1813606   6.030   4.881  11.080
   77MYC    H3113607   5.949   4.913  11.014
   77MYC    C1713608   6.062   4.734  11.094
   77MYC    H3013609   6.157   4.700  11.135
   77MYC    C1913610   5.986   4.806  11.203
   77MYC    H3213611   6.046   4.807  11.294
   77MYC    H3313612   5.881   4.781  11.213
   77MYC    C1613613   5.982   4.631  11.016
   77MYC    H2813614   5.877   4.662  11.017
   77MYC    H2913615   5.991   4.532  11.062
   77MYC    C1513616   6.033   4.624  10.871
   77MYC    H2613617   6.110   4.546  10.867
   77MYC    H2713618   6.077   4.717  10.834
   77MYC    C1413619   5.913   4.584  10.784
   77MYC    H2413620   5.827   4.651  10.796
   77MYC    H2513621   5.883   4.482  10.811
   77MYC    C1313622   5.958   4.581  10.637
   77MYC    H2213623   6.033   4.501  10.622
   77MYC    H2313624   6.009   4.673  10.607
   77MYC    C1213625   5.838   4.557  10.544
   77MYC    H2013626   5.774   4.647  10.542
   77MYC    H2113627   5.764   4.484  10.577
   77MYC    C1113628   5.883   4.511  10.404
   77MYC    H1813629   5.797   4.519  10.336
   77MYC    H1913630   5.901   4.403  10.411
   77MYC    C1013631   6.004   4.573  10.332
   77MYC    H1613632   6.016   4.509  10.243
   77MYC    H1713633   6.097   4.553  10.387
   77MYC     C913634   5.984   4.722  10.301
   77MYC    H1413635   6.067   4.768  10.356
   77MYC    H1513636   5.893   4.757  10.351
   77MYC     C813637   5.979   4.755  10.151
   77MYC    H1213638   5.923   4.674  10.104
   77MYC    H1313639   6.084   4.749  10.120
   77MYC     C713640   5.917   4.890  10.114
   77MYC    H1013641   5.996   4.965  10.097
   77MYC    H1113642   5.855   4.927  10.197
   77MYC     C613643   5.835   4.890   9.985
   77MYC     H813644   5.789   4.990   9.982
   77MYC     H913645   5.758   4.812   9.995
   77MYC     C513646   5.908   4.863   9.852
   77MYC     H613647   5.944   4.760   9.861
   77MYC     H713648   5.997   4.926   9.841
   77MYC     C413649   5.832   4.869   9.719
   77MYC     H413650   5.826   4.973   9.685
   77MYC     H513651   5.734   4.827   9.745
   77MYC     C213652   5.881   4.785   9.600
   77MYC     H213653   5.898   4.854   9.517
   77MYC     O313654   6.011   4.731   9.620
   77MYC     H313655   5.996   4.642   9.658
   77MYC     C113656   5.776   4.684   9.551
   77MYC     H113657   5.683   4.742   9.546
   77MYC    C8113658   5.753   4.575   9.655
   77MYC    O8213659   5.842   4.557   9.737
   77MYC    O8313660   5.622   4.568   9.686
   77MYC   6H1513661   5.623   4.529   9.775
   77MYC    C2013662   5.797   4.619   9.413
   77MYC    H3413663   5.903   4.593   9.415
   77MYC    H3513664   5.749   4.520   9.408
   77MYC    C2113665   5.754   4.709   9.295
   77MYC    H3613666   5.645   4.709   9.306
   77MYC    H3713667   5.781   4.815   9.296
   77MYC    C2213668   5.783   4.650   9.157
   77MYC    H3813669   5.892   4.633   9.148
   77MYC    H3913670   5.740   4.549   9.153
   77MYC    C2313671   5.733   4.734   9.039
   77MYC    H4013672   5.624   4.730   9.051
   77MYC    H4113673   5.770   4.838   9.041
   77MYC    C2413674   5.780   4.673   8.906
   77MYC    H4213675   5.889   4.661   8.905
   77MYC    H4313676   5.755   4.566   8.906
   77MYC    C2513677   5.721   4.745   8.783
   77MYC    H4413678   5.618   4.774   8.805
   77MYC    H4513679   5.776   4.839   8.773
   77MYC    C2613680   5.731   4.668   8.651
   77MYC    H4613681   5.837   4.664   8.623
   77MYC    H4713682   5.696   4.564   8.660
   77MYC    C2713683   5.662   4.734   8.530
   77MYC    H4813684   5.556   4.760   8.542
   77MYC    H4913685   5.706   4.833   8.508
   77MYC    C2813686   5.673   4.649   8.403
   77MYC    H5013687   5.770   4.598   8.402
   77MYC    H5113688   5.599   4.568   8.400
   77MYC    C2913689   5.666   4.725   8.270
   77MYC    H5213690   5.566   4.764   8.249
   77MYC    H5313691   5.738   4.808   8.267
   77MYC    C3013692   5.710   4.642   8.147
   77MYC    H5413693   5.819   4.638   8.152
   77MYC    H5513694   5.665   4.543   8.158
   77MYC    C3113695   5.662   4.702   8.014
   77MYC    H5613696   5.554   4.717   8.016
   77MYC    H5713697   5.705   4.802   8.001
   77MYC    C3213698   5.707   4.621   7.891
   77MYC    H5813699   5.816   4.605   7.892
   77MYC    H5913700   5.658   4.523   7.891
   77MYC    C3313701   5.666   4.691   7.760
   77MYC    H6013702   5.558   4.711   7.756
   77MYC    H6113703   5.718   4.788   7.771
   77MYC    C3413704   5.700   4.611   7.634
   77MYC    H6213705   5.797   4.562   7.644
   77MYC    H6313706   5.629   4.529   7.616
   77MYC    C3513707   5.718   4.706   7.514
   77MYC    H6413708   5.631   4.772   7.522
   77MYC    H6513709   5.812   4.762   7.525
   77MYC    C3613710   5.716   4.633   7.379
   77MYC    H6613711   5.800   4.563   7.375
   77MYC    H6713712   5.631   4.567   7.360
   77MYC    C3713713   5.730   4.731   7.261
   77MYC    H6813714   5.646   4.801   7.253
   77MYC    H6913715   5.818   4.793   7.280
   77MYC    C3813716   5.760   4.657   7.129
   77MYC    H7013717   5.837   4.586   7.159
   77MYC    H7113718   5.681   4.589   7.095
   77MYC    C3913719   5.814   4.747   7.016
   77MYC    H7213720   5.729   4.812   6.993
   77MYC    H7313721   5.889   4.809   7.067
   77MYC    C4013722   5.871   4.674   6.894
   77MYC    H7413723   5.963   4.626   6.931
   77MYC    H7513724   5.812   4.587   6.861
   77MYC    C4113725   5.911   4.772   6.782
   77MYC    H7613726   5.820   4.819   6.743
   77MYC    H7713727   5.985   4.843   6.822
   77MYC    C4213728   5.976   4.706   6.659
   77MYC    H7813729   6.064   4.648   6.690
   77MYC    H7913730   5.908   4.633   6.614
   77MYC    C4313731   6.014   4.807   6.550
   77MYC    H8013732   6.105   4.772   6.498
   77MYC    H8113733   6.050   4.902   6.593
   77MYC    H8213734   5.928   4.817   6.483
   78MYC   5H1513735   0.251   5.346   6.649
   78MYC    C8013736   0.225   5.402   6.741
   78MYC   3H1513737   0.303   5.474   6.767
   78MYC   4H1513738   0.141   5.471   6.726
   78MYC    C7913739   0.195   5.312   6.862
   78MYC   1H1513740   0.283   5.248   6.872
   78MYC   2H1513741   0.103   5.257   6.841
   78MYC    C7813742   0.173   5.387   6.994
   78MYC   9H1413743   0.080   5.446   6.990
   78MYC   0H1513744   0.247   5.468   7.001
   78MYC    C7713745   0.167   5.302   7.122
   78MYC   7H1413746   0.257   5.240   7.118
   78MYC   8H1413747   0.081   5.235   7.112
   78MYC    C7613748   0.159   5.375   7.257
   78MYC   5H1413749   0.062   5.425   7.259
   78MYC   6H1413750   0.240   5.449   7.255
   78MYC    C7513751   0.175   5.285   7.381
   78MYC   3H1413752   0.260   5.217   7.364
   78MYC   4H1413753   0.086   5.223   7.392
   78MYC    C7413754   0.195   5.365   7.511
   78MYC   1H1413755   0.140   5.460   7.514
   78MYC   2H1413756   0.301   5.393   7.515
   78MYC    C7313757   0.161   5.283   7.636
   78MYC   9H1313758   0.218   5.189   7.637
   78MYC   0H1413759   0.055   5.258   7.636
   78MYC    C7213760   0.194   5.359   7.766
   78MYC   7H1313761   0.112   5.430   7.780
   78MYC   8H1313762   0.288   5.414   7.750
   78MYC    C7113763   0.184   5.271   7.891
   78MYC   5H1313764   0.276   5.211   7.886
   78MYC   6H1313765   0.110   5.190   7.883
   78MYC    C7013766   0.187   5.340   8.029
   78MYC   3H1313767   0.100   5.406   8.036
   78MYC   4H1313768   0.268   5.414   8.035
   78MYC    C6913769   0.186   5.244   8.149
   78MYC   1H1313770   0.279   5.186   8.145
   78MYC   2H1313771   0.098   5.181   8.131
   78MYC    C6813772   0.193   5.317   8.284
   78MYC   9H1213773   0.101   5.376   8.295
   78MYC   0H1313774   0.279   5.385   8.283
   78MYC    C6713775   0.204   5.219   8.402
   78MYC   7H1213776   0.276   5.140   8.378
   78MYC   8H1213777   0.114   5.162   8.427
   78MYC    C6613778   0.257   5.284   8.531
   78MYC   5H1213779   0.177   5.344   8.576
   78MYC   6H1213780   0.342   5.352   8.516
   78MYC    C6513781   0.292   5.182   8.641
   78MYC   3H1213782   0.372   5.113   8.611
   78MYC   4H1213783   0.208   5.117   8.667
   78MYC    C6413784   0.330   5.260   8.768
   78MYC   1H1213785   0.244   5.308   8.815
   78MYC   2H1213786   0.392   5.346   8.741
   78MYC    C6313787   0.391   5.174   8.881
   78MYC   9H1113788   0.490   5.129   8.865
   78MYC   0H1213789   0.318   5.096   8.906
   78MYC    C6213790   0.393   5.257   9.010
   78MYC   7H1113791   0.291   5.292   9.034
   78MYC   8H1113792   0.454   5.348   8.998
   78MYC    C6113793   0.442   5.180   9.133
   78MYC   5H1113794   0.546   5.144   9.129
   78MYC   6H1113795   0.389   5.085   9.142
   78MYC    C6013796   0.426   5.252   9.266
   78MYC   4H1113797   0.324   5.287   9.279
   78MYC    C5813798   0.513   5.219   9.385
   78MYC   1H1113799   0.603   5.161   9.369
   78MYC    C5913800   0.532   5.349   9.311
   78MYC   2H1113801   0.494   5.439   9.359
   78MYC   3H1113802   0.621   5.363   9.249
   78MYC    C5713803   0.457   5.218   9.526
   78MYC   9H1013804   0.398   5.128   9.544
   78MYC   0H1113805   0.390   5.304   9.541
   78MYC    C5613806   0.568   5.212   9.633
   78MYC   7H1013807   0.618   5.309   9.631
   78MYC   8H1013808   0.643   5.140   9.599
   78MYC    C5513809   0.511   5.184   9.773
   78MYC   5H1013810   0.466   5.084   9.778
   78MYC   6H1013811   0.440   5.265   9.795
   78MYC    C5413812   0.620   5.196   9.881
   78MYC   3H1013813   0.677   5.288   9.862
   78MYC   4H1013814   0.681   5.110   9.851
   78MYC    C5313815   0.583   5.157  10.025
   78MYC   1H1013816   0.552   5.053  10.038
   78MYC   2H1013817   0.490   5.213  10.045
   78MYC    C5213818   0.684   5.205  10.130
   78MYC    H9913819   0.681   5.315  10.124
   78MYC   0H1013820   0.787   5.176  10.106
   78MYC    C5113821   0.649   5.167  10.275
   78MYC    H9713822   0.682   5.065  10.297
   78MYC    H9813823   0.539   5.166  10.284
   78MYC    C5013824   0.716   5.261  10.377
   78MYC    H9513825   0.683   5.365  10.362
   78MYC    H9613826   0.823   5.266  10.358
   78MYC    C4913827   0.691   5.208  10.519
   78MYC    H9313828   0.737   5.109  10.531
   78MYC    H9413829   0.582   5.207  10.530
   78MYC    C4813830   0.745   5.292  10.636
   78MYC    H9113831   0.736   5.399  10.615
   78MYC    H9213832   0.851   5.267  10.652
   78MYC    C4713833   0.670   5.257  10.766
   78MYC    H8913834   0.671   5.147  10.777
   78MYC    H9013835   0.567   5.289  10.752
   78MYC    C4613836   0.724   5.314  10.898
   78MYC    H8713837   0.735   5.423  10.892
   78MYC    H8813838   0.825   5.270  10.908
   78MYC    C4513839   0.644   5.280  11.025
   78MYC    H8513840   0.695   5.322  11.113
   78MYC    H8613841   0.635   5.172  11.043
   78MYC    C4413842   0.499   5.331  11.032
   78MYC    H8313843   0.444   5.277  11.110
   78MYC    H8413844   0.447   5.291  10.944
   78MYC    C1813845   0.491   5.482  11.048
   78MYC    H3113846   0.547   5.536  10.973
   78MYC    C1713847   0.365   5.550  11.096
   78MYC    H3013848   0.282   5.485  11.123
   78MYC    C1913849   0.488   5.550  11.183
   78MYC    H3213850   0.495   5.488  11.272
   78MYC    H3313851   0.525   5.651  11.193
   78MYC    C1613852   0.322   5.675  11.021
   78MYC    H2813853   0.409   5.716  10.968
   78MYC    H2913854   0.297   5.755  11.092
   78MYC    C1513855   0.203   5.661  10.924
   78MYC    H2613856   0.164   5.762  10.908
   78MYC    H2713857   0.122   5.605  10.974
   78MYC    C1413858   0.226   5.610  10.781
   78MYC    H2413859   0.266   5.508  10.780
   78MYC    H2513860   0.297   5.674  10.727
   78MYC    C1313861   0.098   5.608  10.695
   78MYC    H2213862   0.075   5.713  10.675
   78MYC    H2313863   0.013   5.566  10.751
   78MYC    C1213864   0.116   5.538  10.559
   78MYC    H2013865   0.144   5.434  10.582
   78MYC    H2113866   0.207   5.579  10.512
   78MYC    C1113867  -0.011   5.540  10.473
   78MYC    H1813868  -0.032   5.638  10.430
   78MYC    H1913869  -0.097   5.499  10.528
   78MYC    C1013870   0.016   5.452  10.349
   78MYC    H1613871  -0.071   5.429  10.287
   78MYC    H1713872   0.052   5.351  10.371
   78MYC     C913873   0.129   5.510  10.263
   78MYC    H1413874   0.163   5.610  10.291
   78MYC    H1513875   0.089   5.531  10.163
   78MYC     C813876   0.253   5.421  10.245
   78MYC    H1213877   0.228   5.336  10.182
   78MYC    H1313878   0.284   5.384  10.344
   78MYC     C713879   0.366   5.506  10.183
   78MYC    H1013880   0.452   5.443  10.158
   78MYC    H1113881   0.396   5.571  10.266
   78MYC     C613882   0.323   5.585  10.059
   78MYC     H813883   0.410   5.644  10.027
   78MYC     H913884   0.252   5.663  10.089
   78MYC     C513885   0.261   5.508   9.941
   78MYC     H613886   0.172   5.458   9.981
   78MYC     H713887   0.326   5.425   9.911
   78MYC     C413888   0.234   5.612   9.832
   78MYC     H413889   0.328   5.661   9.802
   78MYC     H513890   0.174   5.697   9.868
   78MYC     C213891   0.162   5.553   9.710
   78MYC     H213892   0.225   5.468   9.681
   78MYC     O313893   0.031   5.504   9.738
   78MYC     H313894  -0.025   5.547   9.671
   78MYC     C113895   0.161   5.655   9.595
   78MYC     H113896   0.258   5.706   9.592
   78MYC    C8113897   0.058   5.763   9.624
   78MYC    O8213898  -0.062   5.751   9.608
   78MYC    O8313899   0.107   5.889   9.626
   78MYC   6H1513900   0.027   5.943   9.639
   78MYC    C2013901   0.146   5.590   9.457
   78MYC    H3413902   0.199   5.495   9.459
   78MYC    H3513903   0.041   5.568   9.434
   78MYC    C2113904   0.200   5.681   9.345
   78MYC    H3613905   0.164   5.783   9.365
   78MYC    H3713906   0.309   5.688   9.355
   78MYC    C2213907   0.167   5.630   9.204
   78MYC    H3813908   0.197   5.525   9.193
   78MYC    H3913909   0.058   5.624   9.190
   78MYC    C2313910   0.225   5.712   9.088
   78MYC    H4013911   0.187   5.815   9.094
   78MYC    H4113912   0.334   5.716   9.093
   78MYC    C2413913   0.191   5.643   8.954
   78MYC    H4213914   0.220   5.539   8.969
   78MYC    H4313915   0.082   5.650   8.946
   78MYC    C2513916   0.236   5.716   8.826
   78MYC    H4413917   0.189   5.815   8.829
   78MYC    H4513918   0.345   5.720   8.832
   78MYC    C2613919   0.199   5.641   8.696
   78MYC    H4613920   0.253   5.546   8.688
   78MYC    H4713921   0.094   5.612   8.703
   78MYC    C2713922   0.211   5.729   8.571
   78MYC    H4813923   0.173   5.830   8.590
   78MYC    H4913924   0.316   5.743   8.542
   78MYC    C2813925   0.155   5.665   8.442
   78MYC    H5013926   0.219   5.581   8.410
   78MYC    H5113927   0.058   5.619   8.463
   78MYC    C2913928   0.134   5.772   8.334
   78MYC    H5213929   0.063   5.850   8.362
   78MYC    H5313930   0.233   5.816   8.317
   78MYC    C3013931   0.087   5.708   8.203
   78MYC    H5413932   0.124   5.605   8.197
   78MYC    H5513933  -0.020   5.682   8.204
   78MYC    C3113934   0.120   5.794   8.079
   78MYC    H5613935   0.082   5.896   8.086
   78MYC    H5713936   0.228   5.804   8.066
   78MYC    C3213937   0.056   5.731   7.954
   78MYC    H5813938   0.110   5.639   7.927
   78MYC    H5913939  -0.043   5.689   7.979
   78MYC    C3313940   0.050   5.822   7.830
   78MYC    H6013941   0.005   5.915   7.867
   78MYC    H6113942   0.154   5.837   7.797
   78MYC    C3413943  -0.039   5.757   7.723
   78MYC    H6213944  -0.020   5.650   7.714
   78MYC    H6313945  -0.147   5.763   7.744
   78MYC    C3513946  -0.000   5.812   7.585
   78MYC    H6413947  -0.027   5.919   7.590
   78MYC    H6513948   0.108   5.819   7.568
   78MYC    C3613949  -0.063   5.731   7.471
   78MYC    H6613950  -0.023   5.629   7.484
   78MYC    H6713951  -0.171   5.722   7.489
   78MYC    C3713952  -0.032   5.784   7.330
   78MYC    H6813953  -0.064   5.889   7.323
   78MYC    H6913954   0.076   5.777   7.315
   78MYC    C3813955  -0.110   5.703   7.224
   78MYC    H7013956  -0.109   5.597   7.249
   78MYC    H7113957  -0.216   5.731   7.230
   78MYC    C3913958  -0.051   5.738   7.086
   78MYC    H7213959  -0.036   5.847   7.084
   78MYC    H7313960   0.048   5.692   7.075
   78MYC    C4013961  -0.152   5.695   6.978
   78MYC    H7413962  -0.175   5.592   7.005
   78MYC    H7513963  -0.245   5.754   6.983
   78MYC    C4113964  -0.095   5.708   6.836
   78MYC    H7613965  -0.076   5.812   6.805
   78MYC    H7713966   0.003   5.659   6.832
   78MYC    C4213967  -0.184   5.638   6.732
   78MYC    H7813968  -0.188   5.533   6.765
   78MYC    H7913969  -0.284   5.683   6.731
   78MYC    C4313970  -0.125   5.661   6.592
   78MYC    H8013971  -0.189   5.619   6.514
   78MYC    H8113972  -0.025   5.619   6.599
   78MYC    H8213973  -0.118   5.769   6.572
   79MYC   5H1513974   1.220   5.595   6.663
   79MYC    C8013975   1.159   5.591   6.754
   79MYC   3H1513976   1.160   5.691   6.799
   79MYC   4H1513977   1.058   5.555   6.730
   79MYC    C7913978   1.224   5.492   6.852
   79MYC   1H1513979   1.332   5.499   6.835
   79MYC   2H1513980   1.188   5.391   6.827
   79MYC    C7813981   1.192   5.525   6.999
   79MYC   9H1413982   1.084   5.516   7.011
   79MYC   0H1513983   1.215   5.629   7.023
   79MYC    C7713984   1.270   5.431   7.093
   79MYC   7H1413985   1.373   5.468   7.089
   79MYC   8H1413986   1.269   5.329   7.054
   79MYC    C7613987   1.227   5.432   7.241
   79MYC   5H1413988   1.155   5.351   7.258
   79MYC   6H1413989   1.186   5.529   7.273
   79MYC    C7513990   1.345   5.427   7.339
   79MYC   3H1413991   1.384   5.526   7.367
   79MYC   4H1413992   1.430   5.372   7.297
   79MYC    C7413993   1.295   5.364   7.471
   79MYC   1H1413994   1.269   5.260   7.449
   79MYC   2H1413995   1.205   5.418   7.501
   79MYC    C7313996   1.405   5.373   7.578
   79MYC   9H1313997   1.445   5.475   7.588
   79MYC   0H1413998   1.486   5.308   7.542
   79MYC    C7213999   1.364   5.319   7.717
   79MYC   7H1314000   1.408   5.219   7.723
   79MYC   8H1314001   1.255   5.311   7.721
   79MYC    C7114002   1.417   5.405   7.833
   79MYC   5H1314003   1.393   5.510   7.810
   79MYC   6H1314004   1.524   5.387   7.845
   79MYC    C7014005   1.335   5.378   7.960
   79MYC   3H1314006   1.308   5.272   7.970
   79MYC   4H1314007   1.242   5.436   7.955
   79MYC    C6914008   1.408   5.410   8.092
   79MYC   1H1314009   1.453   5.510   8.079
   79MYC   2H1314010   1.497   5.347   8.101
   79MYC    C6814011   1.322   5.415   8.219
   79MYC   9H1214012   1.268   5.321   8.234
   79MYC   0H1314013   1.254   5.498   8.200
   79MYC    C6714014   1.403   5.448   8.346
   79MYC   7H1214015   1.417   5.557   8.353
   79MYC   8H1214016   1.503   5.405   8.330
   79MYC    C6614017   1.330   5.395   8.470
   79MYC   5H1214018   1.306   5.290   8.448
   79MYC   6H1214019   1.235   5.449   8.481
   79MYC    C6514020   1.414   5.414   8.597
   79MYC   3H1214021   1.445   5.519   8.603
   79MYC   4H1214022   1.504   5.354   8.584
   79MYC    C6414023   1.337   5.383   8.727
   79MYC   1H1214024   1.290   5.284   8.729
   79MYC   2H1214025   1.266   5.466   8.741
   79MYC    C6314026   1.429   5.393   8.849
   79MYC   9H1114027   1.465   5.496   8.849
   79MYC   0H1214028   1.517   5.328   8.841
   79MYC    C6214029   1.347   5.383   8.979
   79MYC   7H1114030   1.306   5.283   8.998
   79MYC   8H1114031   1.259   5.446   8.964
   79MYC    C6114032   1.428   5.437   9.098
   79MYC   5H1114033   1.474   5.534   9.076
   79MYC   6H1114034   1.514   5.369   9.106
   79MYC    C6014035   1.353   5.410   9.228
   79MYC   4H1114036   1.330   5.304   9.234
   79MYC    C5814037   1.384   5.487   9.354
   79MYC   1H1114038   1.444   5.577   9.342
   79MYC    C5914039   1.253   5.509   9.283
   79MYC   2H1114040   1.164   5.472   9.332
   79MYC   3H1114041   1.241   5.598   9.223
   79MYC    C5714042   1.397   5.413   9.487
   79MYC   9H1014043   1.503   5.387   9.499
   79MYC   0H1114044   1.351   5.314   9.487
   79MYC    C5614045   1.348   5.502   9.603
   79MYC   7H1014046   1.239   5.506   9.605
   79MYC   8H1014047   1.387   5.604   9.591
   79MYC    C5514048   1.403   5.459   9.739
   79MYC   5H1014049   1.512   5.444   9.746
   79MYC   6H1014050   1.363   5.358   9.752
   79MYC    C5414051   1.346   5.547   9.852
   79MYC   3H1014052   1.238   5.531   9.867
   79MYC   4H1014053   1.345   5.652   9.820
   79MYC    C5314054   1.430   5.528   9.979
   79MYC   1H1014055   1.538   5.525   9.960
   79MYC   2H1014056   1.418   5.426  10.018
   79MYC    C5214057   1.393   5.638  10.080
   79MYC    H9914058   1.284   5.628  10.093
   79MYC   0H1014059   1.412   5.741  10.050
   79MYC    C5114060   1.455   5.609  10.217
   79MYC    H9714061   1.556   5.651  10.216
   79MYC    H9814062   1.478   5.503  10.235
   79MYC    C5014063   1.380   5.666  10.339
   79MYC    H9514064   1.278   5.627  10.353
   79MYC    H9614065   1.375   5.776  10.337
   79MYC    C4914066   1.456   5.638  10.469
   79MYC    H9314067   1.537   5.710  10.486
   79MYC    H9414068   1.509   5.542  10.466
   79MYC    C4814069   1.374   5.630  10.599
   79MYC    H9114070   1.270   5.611  10.569
   79MYC    H9214071   1.376   5.724  10.655
   79MYC    C4714072   1.417   5.519  10.697
   79MYC    H8914073   1.503   5.563  10.748
   79MYC    H9014074   1.452   5.431  10.642
   79MYC    C4614075   1.309   5.475  10.797
   79MYC    H8714076   1.239   5.412  10.741
   79MYC    H8814077   1.253   5.565  10.826
   79MYC    C4514078   1.366   5.403  10.920
   79MYC    H8514079   1.455   5.453  10.960
   79MYC    H8614080   1.397   5.308  10.876
   79MYC    C4414081   1.274   5.391  11.042
   79MYC    H8314082   1.315   5.303  11.093
   79MYC    H8414083   1.174   5.358  11.011
   79MYC    C1814084   1.272   5.511  11.136
   79MYC    H3114085   1.367   5.543  11.177
   79MYC    C1714086   1.184   5.630  11.105
   79MYC    H3014087   1.114   5.621  11.022
   79MYC    C1914088   1.149   5.537  11.219
   79MYC    H3214089   1.057   5.480  11.205
   79MYC    H3314090   1.161   5.564  11.324
   79MYC    C1614091   1.257   5.762  11.118
   79MYC    H2814092   1.360   5.749  11.082
   79MYC    H2914093   1.266   5.781  11.226
   79MYC    C1514094   1.189   5.883  11.053
   79MYC    H2614095   1.228   5.981  11.086
   79MYC    H2714096   1.085   5.880  11.088
   79MYC    C1414097   1.194   5.884  10.899
   79MYC    H2414098   1.183   5.779  10.869
   79MYC    H2514099   1.288   5.920  10.855
   79MYC    C1314100   1.070   5.951  10.838
   79MYC    H2214101   1.086   6.059  10.835
   79MYC    H2314102   0.980   5.922  10.893
   79MYC    C1214103   1.054   5.903  10.692
   79MYC    H2014104   1.038   5.795  10.696
   79MYC    H2114105   1.149   5.919  10.639
   79MYC    C1114106   0.946   5.980  10.614
   79MYC    H1814107   0.979   6.084  10.602
   79MYC    H1914108   0.853   5.991  10.672
   79MYC    C1014109   0.911   5.902  10.487
   79MYC    H1614110   0.812   5.937  10.455
   79MYC    H1714111   0.902   5.794  10.505
   79MYC     C914112   1.000   5.947  10.369
   79MYC    H1414113   1.104   5.939  10.401
   79MYC    H1514114   0.976   6.054  10.363
   79MYC     C814115   0.974   5.873  10.237
   79MYC    H1214116   0.874   5.886  10.194
   79MYC    H1314117   0.992   5.768  10.261
   79MYC     C714118   1.074   5.915  10.128
   79MYC    H1014119   1.175   5.909  10.170
   79MYC    H1114120   1.066   6.020  10.095
   79MYC     C614121   1.069   5.829  10.001
   79MYC     H814122   1.056   5.723  10.028
   79MYC     H914123   1.167   5.840   9.952
   79MYC     C514124   0.959   5.880   9.905
   79MYC     H614125   0.963   5.988   9.890
   79MYC     H714126   0.866   5.857   9.959
   79MYC     C414127   0.949   5.818   9.765
   79MYC     H414128   0.845   5.835   9.732
   79MYC     H514129   0.963   5.710   9.757
   79MYC     C214130   1.046   5.878   9.661
   79MYC     H214131   1.078   5.979   9.689
   79MYC     O314132   1.165   5.800   9.647
   79MYC     H314133   1.144   5.711   9.615
   79MYC     C114134   0.975   5.881   9.525
   79MYC     H114135   0.911   5.970   9.531
   79MYC    C8114136   0.877   5.767   9.503
   79MYC    O8214137   0.914   5.653   9.483
   79MYC    O8314138   0.750   5.808   9.485
   79MYC   6H1514139   0.704   5.732   9.444
   79MYC    C2014140   1.073   5.907   9.409
   79MYC    H3414141   1.113   6.009   9.411
   79MYC    H3514142   1.149   5.827   9.409
   79MYC    C2114143   1.010   5.887   9.270
   79MYC    H3614144   0.976   5.783   9.260
   79MYC    H3714145   0.912   5.936   9.268
   79MYC    C2214146   1.105   5.928   9.157
   79MYC    H3814147   1.137   6.031   9.177
   79MYC    H3914148   1.199   5.873   9.163
   79MYC    C2314149   1.033   5.914   9.022
   79MYC    H4014150   0.984   5.817   9.003
   79MYC    H4114151   0.955   5.991   9.014
   79MYC    C2414152   1.122   5.948   8.901
   79MYC    H4214153   1.139   6.056   8.913
   79MYC    H4314154   1.214   5.895   8.927
   79MYC    C2514155   1.084   5.909   8.757
   79MYC    H4414156   1.061   5.802   8.750
   79MYC    H4514157   0.992   5.964   8.736
   79MYC    C2614158   1.196   5.948   8.658
   79MYC    H4614159   1.241   6.045   8.682
   79MYC    H4714160   1.284   5.885   8.674
   79MYC    C2714161   1.151   5.956   8.511
   79MYC    H4814162   1.054   5.907   8.492
   79MYC    H4914163   1.142   6.059   8.476
   79MYC    C2814164   1.257   5.894   8.418
   79MYC    H5014165   1.353   5.937   8.449
   79MYC    H5114166   1.258   5.785   8.423
   79MYC    C2914167   1.245   5.936   8.270
   79MYC    H5214168   1.210   6.039   8.261
   79MYC    H5314169   1.338   5.924   8.213
   79MYC    C3014170   1.148   5.847   8.191
   79MYC    H5414171   1.208   5.757   8.173
   79MYC    H5514172   1.058   5.825   8.250
   79MYC    C3114173   1.126   5.906   8.051
   79MYC    H5614174   1.064   5.997   8.051
   79MYC    H5714175   1.222   5.939   8.008
   79MYC    C3214176   1.059   5.801   7.961
   79MYC    H5814177   1.116   5.707   7.952
   79MYC    H5914178   0.964   5.769   8.004
   79MYC    C3314179   1.030   5.867   7.825
   79MYC    H6014180   0.978   5.961   7.849
   79MYC    H6114181   1.127   5.891   7.779
   79MYC    C3414182   0.943   5.771   7.742
   79MYC    H6214183   0.969   5.665   7.745
   79MYC    H6314184   0.840   5.775   7.780
   79MYC    C3514185   0.926   5.824   7.599
   79MYC    H6414186   0.900   5.930   7.609
   79MYC    H6514187   1.022   5.813   7.548
   79MYC    C3614188   0.828   5.748   7.508
   79MYC    H6614189   0.817   5.643   7.539
   79MYC    H6714190   0.726   5.788   7.512
   79MYC    C3714191   0.882   5.756   7.365
   79MYC    H6814192   0.930   5.849   7.331
   79MYC    H6914193   0.963   5.683   7.357
   79MYC    C3814194   0.781   5.725   7.252
   79MYC    H7014195   0.739   5.629   7.285
   79MYC    H7114196   0.702   5.801   7.249
   79MYC    C3914197   0.853   5.717   7.117
   79MYC    H7214198   0.918   5.804   7.100
   79MYC    H7314199   0.919   5.629   7.121
   79MYC    C4014200   0.750   5.713   7.003
   79MYC    H7414201   0.658   5.668   7.042
   79MYC    H7514202   0.735   5.817   6.971
   79MYC    C4114203   0.812   5.635   6.885
   79MYC    H7614204   0.916   5.664   6.867
   79MYC    H7714205   0.820   5.530   6.917
   79MYC    C4214206   0.734   5.649   6.753
   79MYC    H7814207   0.625   5.649   6.768
   79MYC    H7914208   0.759   5.744   6.705
   79MYC    C4314209   0.774   5.552   6.641
   79MYC    H8014210   0.719   5.588   6.553
   79MYC    H8114211   0.718   5.460   6.661
   79MYC    H8214212   0.881   5.535   6.624
   80MYC   5H1514213   2.384   5.221   6.648
   80MYC    C8014214   2.332   5.209   6.744
   80MYC   3H1514215   2.224   5.216   6.723
   80MYC   4H1514216   2.351   5.105   6.775
   80MYC    C7914217   2.374   5.305   6.856
   80MYC   1H1514218   2.348   5.408   6.826
   80MYC   2H1514219   2.482   5.301   6.870
   80MYC    C7814220   2.312   5.265   6.991
   80MYC   9H1414221   2.330   5.157   7.005
   80MYC   0H1514222   2.204   5.278   6.978
   80MYC    C7714223   2.352   5.348   7.114
   80MYC   7H1414224   2.319   5.452   7.110
   80MYC   8H1414225   2.461   5.346   7.122
   80MYC    C7614226   2.304   5.275   7.241
   80MYC   5H1414227   2.336   5.170   7.251
   80MYC   6H1414228   2.195   5.264   7.238
   80MYC    C7514229   2.330   5.357   7.368
   80MYC   3H1414230   2.305   5.463   7.352
   80MYC   4H1414231   2.436   5.337   7.391
   80MYC    C7414232   2.264   5.297   7.493
   80MYC   1H1414233   2.282   5.190   7.504
   80MYC   2H1414234   2.155   5.299   7.480
   80MYC    C7314235   2.304   5.376   7.619
   80MYC   9H1314236   2.270   5.480   7.626
   80MYC   0H1414237   2.413   5.374   7.625
   80MYC    C7214238   2.247   5.301   7.741
   80MYC   7H1314239   2.289   5.202   7.758
   80MYC   8H1314240   2.140   5.279   7.730
   80MYC    C7114241   2.278   5.372   7.874
   80MYC   5H1314242   2.253   5.479   7.868
   80MYC   6H1314243   2.384   5.360   7.899
   80MYC    C7014244   2.200   5.312   7.993
   80MYC   3H1314245   2.229   5.206   7.999
   80MYC   4H1314246   2.090   5.313   7.985
   80MYC    C6914247   2.235   5.382   8.125
   80MYC   1H1314248   2.191   5.482   8.128
   80MYC   2H1314249   2.344   5.379   8.138
   80MYC    C6814250   2.170   5.313   8.246
   80MYC   9H1214251   2.171   5.205   8.231
   80MYC   0H1314252   2.065   5.346   8.253
   80MYC    C6714253   2.236   5.358   8.378
   80MYC   7H1214254   2.214   5.465   8.387
   80MYC   8H1214255   2.343   5.334   8.370
   80MYC    C6614256   2.179   5.283   8.499
   80MYC   5H1214257   2.193   5.175   8.484
   80MYC   6H1214258   2.072   5.301   8.512
   80MYC    C6514259   2.244   5.316   8.635
   80MYC   3H1214260   2.257   5.424   8.642
   80MYC   4H1214261   2.344   5.271   8.631
   80MYC    C6414262   2.159   5.254   8.748
   80MYC   1H1214263   2.144   5.147   8.729
   80MYC   2H1214264   2.065   5.311   8.746
   80MYC    C6314265   2.227   5.278   8.883
   80MYC   9H1114266   2.244   5.386   8.887
   80MYC   0H1214267   2.323   5.226   8.896
   80MYC    C6214268   2.130   5.229   8.993
   80MYC   7H1114269   2.073   5.142   8.958
   80MYC   8H1114270   2.053   5.306   8.997
   80MYC    C6114271   2.203   5.211   9.127
   80MYC   5H1114272   2.251   5.306   9.155
   80MYC   6H1114273   2.286   5.140   9.126
   80MYC    C6014274   2.096   5.170   9.227
   80MYC   4H1114275   2.066   5.066   9.215
   80MYC    C5814276   2.090   5.225   9.367
   80MYC   1H1114277   2.152   5.312   9.386
   80MYC    C5914278   1.973   5.244   9.274
   80MYC   2H1114279   1.885   5.179   9.278
   80MYC   3H1114280   1.961   5.343   9.232
   80MYC    C5714281   2.089   5.130   9.486
   80MYC   9H1014282   2.178   5.067   9.472
   80MYC   0H1114283   2.001   5.063   9.484
   80MYC    C5614284   2.099   5.200   9.622
   80MYC   7H1014285   2.018   5.274   9.625
   80MYC   8H1014286   2.196   5.251   9.629
   80MYC    C5514287   2.083   5.100   9.739
   80MYC   5H1014288   2.173   5.042   9.759
   80MYC   6H1014289   2.002   5.029   9.718
   80MYC    C5414290   2.067   5.181   9.869
   80MYC   3H1014291   1.978   5.245   9.867
   80MYC   4H1014292   2.157   5.244   9.869
   80MYC    C5314293   2.060   5.093   9.995
   80MYC   1H1014294   2.160   5.048  10.002
   80MYC   2H1014295   1.980   5.019   9.990
   80MYC    C5214296   2.044   5.183  10.119
   80MYC    H9914297   1.941   5.219  10.127
   80MYC   0H1014298   2.110   5.269  10.106
   80MYC    C5114299   2.094   5.116  10.248
   80MYC    H9714300   2.204   5.112  10.245
   80MYC    H9814301   2.047   5.017  10.259
   80MYC    C5014302   2.053   5.196  10.373
   80MYC    H9514303   1.957   5.157  10.410
   80MYC    H9614304   2.040   5.301  10.346
   80MYC    C4914305   2.156   5.177  10.486
   80MYC    H9314306   2.258   5.183  10.447
   80MYC    H9414307   2.145   5.075  10.527
   80MYC    C4814308   2.135   5.276  10.602
   80MYC    H9114309   2.031   5.277  10.637
   80MYC    H9214310   2.149   5.378  10.565
   80MYC    C4714311   2.234   5.246  10.716
   80MYC    H8914312   2.337   5.266  10.684
   80MYC    H9014313   2.224   5.141  10.745
   80MYC    C4614314   2.205   5.333  10.839
   80MYC    H8714315   2.097   5.335  10.861
   80MYC    H8814316   2.239   5.431  10.804
   80MYC    C4514317   2.283   5.287  10.964
   80MYC    H8514318   2.389   5.276  10.939
   80MYC    H8614319   2.247   5.186  10.988
   80MYC    C4414320   2.273   5.384  11.084
   80MYC    H8314321   2.289   5.328  11.177
   80MYC    H8414322   2.172   5.426  11.083
   80MYC    C1814323   2.372   5.499  11.072
   80MYC    H3114324   2.409   5.523  10.972
   80MYC    C1714325   2.325   5.618  11.151
   80MYC    H3014326   2.237   5.605  11.212
   80MYC    C1914327   2.448   5.542  11.195
   80MYC    H3214328   2.438   5.471  11.276
   80MYC    H3314329   2.547   5.585  11.186
   80MYC    C1614330   2.330   5.765  11.109
   80MYC    H2814331   2.408   5.788  11.035
   80MYC    H2914332   2.358   5.831  11.192
   80MYC    C1514333   2.193   5.818  11.063
   80MYC    H2614334   2.184   5.926  11.082
   80MYC    H2714335   2.112   5.776  11.124
   80MYC    C1414336   2.176   5.776  10.916
   80MYC    H2414337   2.151   5.670  10.915
   80MYC    H2514338   2.271   5.797  10.866
   80MYC    C1314339   2.068   5.858  10.844
   80MYC    H2214340   2.115   5.954  10.820
   80MYC    H2314341   1.982   5.882  10.908
   80MYC    C1214342   2.027   5.785  10.715
   80MYC    H2014343   1.944   5.846  10.678
   80MYC    H2114344   1.987   5.684  10.729
   80MYC    C1114345   2.135   5.789  10.606
   80MYC    H1814346   2.226   5.748  10.651
   80MYC    H1914347   2.166   5.890  10.575
   80MYC    C1014348   2.090   5.700  10.489
   80MYC    H1614349   1.985   5.721  10.465
   80MYC    H1714350   2.089   5.596  10.526
   80MYC     C914351   2.169   5.702  10.357
   80MYC    H1414352   2.274   5.684  10.381
   80MYC    H1514353   2.157   5.800  10.310
   80MYC     C814354   2.118   5.593  10.261
   80MYC    H1214355   2.009   5.593  10.262
   80MYC    H1314356   2.155   5.498  10.303
   80MYC     C714357   2.181   5.612  10.122
   80MYC    H1014358   2.245   5.528  10.096
   80MYC    H1114359   2.249   5.698  10.129
   80MYC     C614360   2.074   5.627  10.012
   80MYC     H814361   1.994   5.690  10.052
   80MYC     H914362   2.024   5.531   9.993
   80MYC     C514363   2.127   5.687   9.881
   80MYC     H614364   2.198   5.617   9.834
   80MYC     H714365   2.193   5.772   9.901
   80MYC     C414366   2.025   5.737   9.777
   80MYC     H414367   2.063   5.822   9.721
   80MYC     H514368   1.941   5.781   9.833
   80MYC     C214369   1.971   5.630   9.681
   80MYC     H214370   2.043   5.626   9.598
   80MYC     O314371   1.964   5.500   9.738
   80MYC     H314372   1.916   5.514   9.821
   80MYC     C114373   1.835   5.676   9.626
   80MYC     H114374   1.847   5.780   9.594
   80MYC    C8114375   1.714   5.676   9.719
   80MYC    O8214376   1.716   5.624   9.829
   80MYC    O8314377   1.606   5.744   9.675
   80MYC   6H1514378   1.541   5.747   9.747
   80MYC    C2014379   1.803   5.603   9.495
   80MYC    H3414380   1.827   5.498   9.513
   80MYC    H3514381   1.695   5.607   9.476
   80MYC    C2114382   1.869   5.662   9.368
   80MYC    H3614383   1.849   5.770   9.370
   80MYC    H3714384   1.978   5.652   9.363
   80MYC    C2214385   1.794   5.613   9.243
   80MYC    H3814386   1.762   5.508   9.252
   80MYC    H3914387   1.706   5.675   9.223
   80MYC    C2314388   1.889   5.616   9.122
   80MYC    H4014389   1.932   5.716   9.108
   80MYC    H4114390   1.970   5.543   9.130
   80MYC    C2414391   1.816   5.568   8.996
   80MYC    H4214392   1.815   5.458   8.999
   80MYC    H4314393   1.714   5.609   9.002
   80MYC    C2514394   1.877   5.621   8.865
   80MYC    H4414395   1.878   5.731   8.870
   80MYC    H4514396   1.981   5.591   8.846
   80MYC    C2614397   1.795   5.574   8.744
   80MYC    H4614398   1.772   5.468   8.760
   80MYC    H4714399   1.698   5.625   8.738
   80MYC    C2714400   1.871   5.590   8.611
   80MYC    H4814401   1.879   5.700   8.610
   80MYC    H4914402   1.971   5.547   8.614
   80MYC    C2814403   1.790   5.534   8.493
   80MYC    H5014404   1.791   5.425   8.503
   80MYC    H5114405   1.683   5.555   8.502
   80MYC    C2914406   1.847   5.591   8.362
   80MYC    H5214407   1.826   5.699   8.355
   80MYC    H5314408   1.956   5.579   8.364
   80MYC    C3014409   1.795   5.517   8.238
   80MYC    H5414410   1.805   5.411   8.263
   80MYC    H5514411   1.688   5.540   8.241
   80MYC    C3114412   1.870   5.565   8.112
   80MYC    H5614413   1.854   5.674   8.115
   80MYC    H5714414   1.977   5.542   8.119
   80MYC    C3214415   1.822   5.503   7.981
   80MYC    H5814416   1.841   5.395   7.978
   80MYC    H5914417   1.713   5.513   7.970
   80MYC    C3314418   1.891   5.570   7.861
   80MYC    H6014419   1.854   5.673   7.861
   80MYC    H6114420   2.001   5.573   7.870
   80MYC    C3414421   1.871   5.481   7.737
   80MYC    H6214422   1.928   5.387   7.747
   80MYC    H6314423   1.764   5.457   7.726
   80MYC    C3514424   1.908   5.564   7.614
   80MYC    H6414425   1.858   5.661   7.606
   80MYC    H6514426   2.016   5.585   7.605
   80MYC    C3614427   1.875   5.477   7.491
   80MYC    H6614428   1.943   5.392   7.489
   80MYC    H6714429   1.775   5.433   7.504
   80MYC    C3714430   1.881   5.558   7.360
   80MYC    H6814431   1.833   5.656   7.376
   80MYC    H6914432   1.989   5.574   7.345
   80MYC    C3814433   1.819   5.489   7.238
   80MYC    H7014434   1.881   5.401   7.219
   80MYC    H7114435   1.716   5.452   7.249
   80MYC    C3914436   1.837   5.567   7.107
   80MYC    H7214437   1.769   5.653   7.112
   80MYC    H7314438   1.935   5.617   7.113
   80MYC    C4014439   1.823   5.486   6.977
   80MYC    H7414440   1.901   5.411   6.956
   80MYC    H7514441   1.723   5.442   6.975
   80MYC    C4114442   1.832   5.576   6.852
   80MYC    H7614443   1.737   5.632   6.851
   80MYC    H7714444   1.913   5.649   6.866
   80MYC    C4214445   1.830   5.505   6.716
   80MYC    H7814446   1.881   5.408   6.705
   80MYC    H7914447   1.727   5.479   6.689
   80MYC    C4314448   1.879   5.594   6.601
   80MYC    H8014449   1.864   5.531   6.512
   80MYC    H8114450   1.979   5.632   6.622
   80MYC    H8214451   1.800   5.670   6.601
   81MYC   5H1514452   3.107   5.452   6.636
   81MYC    C8014453   3.059   5.486   6.729
   81MYC   3H1514454   3.094   5.589   6.720
   81MYC   4H1514455   2.951   5.478   6.715
   81MYC    C7914456   3.122   5.414   6.849
   81MYC   1H1514457   3.231   5.427   6.843
   81MYC   2H1514458   3.103   5.307   6.857
   81MYC    C7814459   3.072   5.479   6.980
   81MYC   9H1414460   2.963   5.477   6.984
   81MYC   0H1514461   3.107   5.583   6.990
   81MYC    C7714462   3.121   5.404   7.105
   81MYC   7H1414463   3.230   5.411   7.117
   81MYC   8H1414464   3.101   5.298   7.087
   81MYC    C7614465   3.064   5.452   7.240
   81MYC   5H1414466   2.960   5.419   7.250
   81MYC   6H1414467   3.066   5.561   7.250
   81MYC    C7514468   3.144   5.391   7.357
   81MYC   3H1414469   3.243   5.438   7.357
   81MYC   4H1414470   3.141   5.283   7.340
   81MYC    C7414471   3.089   5.422   7.497
   81MYC   1H1414472   2.989   5.380   7.513
   81MYC   2H1414473   3.073   5.530   7.510
   81MYC    C7314474   3.177   5.373   7.614
   81MYC   9H1314475   3.278   5.415   7.607
   81MYC   0H1414476   3.188   5.264   7.612
   81MYC    C7214477   3.118   5.416   7.749
   81MYC   7H1314478   3.012   5.389   7.755
   81MYC   8H1314479   3.118   5.526   7.743
   81MYC    C7114480   3.183   5.354   7.874
   81MYC   5H1314481   3.289   5.380   7.879
   81MYC   6H1314482   3.168   5.245   7.874
   81MYC    C7014483   3.125   5.410   8.005
   81MYC   3H1314484   3.018   5.387   7.998
   81MYC   4H1314485   3.140   5.519   8.010
   81MYC    C6914486   3.176   5.343   8.134
   81MYC   1H1314487   3.276   5.381   8.155
   81MYC   2H1314488   3.175   5.235   8.119
   81MYC    C6814489   3.078   5.372   8.248
   81MYC   9H1214490   2.991   5.305   8.248
   81MYC   0H1314491   3.046   5.477   8.253
   81MYC    C6714492   3.154   5.356   8.381
   81MYC   7H1214493   3.225   5.438   8.392
   81MYC   8H1214494   3.218   5.267   8.386
   81MYC    C6614495   3.059   5.363   8.502
   81MYC   5H1214496   2.998   5.273   8.514
   81MYC   6H1214497   2.999   5.454   8.491
   81MYC    C6514498   3.143   5.384   8.629
   81MYC   3H1214499   3.177   5.488   8.626
   81MYC   4H1214500   3.238   5.329   8.629
   81MYC    C6414501   3.062   5.346   8.755
   81MYC   1H1214502   3.074   5.241   8.781
   81MYC   2H1214503   2.954   5.357   8.747
   81MYC    C6314504   3.104   5.418   8.885
   81MYC   9H1114505   3.053   5.514   8.895
   81MYC   0H1214506   3.213   5.436   8.882
   81MYC    C6214507   3.061   5.342   9.011
   81MYC   7H1114508   3.089   5.236   9.006
   81MYC   8H1114509   2.951   5.334   9.009
   81MYC    C6114510   3.104   5.410   9.142
   81MYC   5H1114511   3.062   5.511   9.150
   81MYC   6H1114512   3.212   5.426   9.133
   81MYC    C6014513   3.069   5.331   9.268
   81MYC   4H1114514   3.105   5.228   9.266
   81MYC    C5814515   3.075   5.387   9.407
   81MYC   1H1114516   3.096   5.492   9.427
   81MYC    C5914517   2.942   5.361   9.342
   81MYC   2H1114518   2.884   5.282   9.390
   81MYC   3H1114519   2.881   5.448   9.319
   81MYC    C5714520   3.123   5.302   9.524
   81MYC   9H1014521   3.233   5.302   9.533
   81MYC   0H1114522   3.100   5.200   9.492
   81MYC    C5614523   3.052   5.331   9.657
   81MYC   7H1014524   3.042   5.439   9.676
   81MYC   8H1014525   3.119   5.303   9.739
   81MYC    C5514526   2.925   5.253   9.692
   81MYC   5H1014527   2.953   5.147   9.689
   81MYC   6H1014528   2.839   5.271   9.625
   81MYC    C5414529   2.865   5.279   9.831
   81MYC   3H1014530   2.766   5.232   9.831
   81MYC   4H1014531   2.847   5.387   9.845
   81MYC    C5314532   2.940   5.222   9.952
   81MYC   1H1014533   3.047   5.244   9.944
   81MYC   2H1014534   2.938   5.114   9.971
   81MYC    C5214535   2.889   5.279  10.086
   81MYC    H9914536   2.794   5.225  10.100
   81MYC   0H1014537   2.871   5.386  10.073
   81MYC    C5114538   2.984   5.247  10.202
   81MYC    H9714539   3.081   5.291  10.177
   81MYC    H9814540   2.989   5.137  10.208
   81MYC    C5014541   2.933   5.310  10.332
   81MYC    H9514542   2.831   5.277  10.356
   81MYC    H9614543   2.927   5.419  10.324
   81MYC    C4914544   3.029   5.274  10.447
   81MYC    H9314545   3.129   5.296  10.408
   81MYC    H9414546   3.031   5.166  10.464
   81MYC    C4814547   2.993   5.353  10.575
   81MYC    H9114548   2.900   5.325  10.625
   81MYC    H9214549   2.990   5.462  10.565
   81MYC    C4714550   3.101   5.316  10.678
   81MYC    H8914551   3.197   5.354  10.641
   81MYC    H9014552   3.112   5.207  10.691
   81MYC    C4614553   3.074   5.386  10.812
   81MYC    H8714554   2.991   5.333  10.860
   81MYC    H8814555   3.044   5.490  10.792
   81MYC    C4514556   3.193   5.381  10.910
   81MYC    H8514557   3.282   5.423  10.862
   81MYC    H8614558   3.212   5.275  10.929
   81MYC    C4414559   3.166   5.454  11.043
   81MYC    H8314560   3.225   5.410  11.124
   81MYC    H8414561   3.070   5.413  11.075
   81MYC    C1814562   3.153   5.606  11.033
   81MYC    H3114563   3.106   5.638  10.941
   81MYC    C1714564   3.095   5.669  11.157
   81MYC    H3014565   3.078   5.605  11.243
   81MYC    C1914566   3.236   5.701  11.115
   81MYC    H3214567   3.313   5.657  11.178
   81MYC    H3314568   3.260   5.799  11.075
   81MYC    C1614569   2.996   5.784  11.147
   81MYC    H2814570   3.024   5.857  11.070
   81MYC    H2914571   3.000   5.844  11.239
   81MYC    C1514572   2.853   5.746  11.105
   81MYC    H2614573   2.787   5.831  11.127
   81MYC    H2714574   2.823   5.659  11.164
   81MYC    C1414575   2.838   5.714  10.955
   81MYC    H2414576   2.880   5.613  10.948
   81MYC    H2514577   2.889   5.783  10.887
   81MYC    C1314578   2.696   5.710  10.896
   81MYC    H2214579   2.643   5.803  10.919
   81MYC    H2314580   2.636   5.637  10.951
   81MYC    C1214581   2.690   5.680  10.745
   81MYC    H2014582   2.692   5.571  10.733
   81MYC    H2114583   2.783   5.723  10.707
   81MYC    C1114584   2.576   5.749  10.668
   81MYC    H1814585   2.610   5.844  10.625
   81MYC    H1914586   2.499   5.762  10.745
   81MYC    C1014587   2.514   5.662  10.557
   81MYC    H1614588   2.444   5.729  10.504
   81MYC    H1714589   2.455   5.586  10.610
   81MYC     C914590   2.612   5.604  10.455
   81MYC    H1414591   2.672   5.528  10.508
   81MYC    H1514592   2.682   5.685  10.430
   81MYC     C814593   2.540   5.557  10.327
   81MYC    H1214594   2.489   5.644  10.284
   81MYC    H1314595   2.467   5.479  10.352
   81MYC     C714596   2.638   5.487  10.232
   81MYC    H1014597   2.653   5.384  10.266
   81MYC    H1114598   2.733   5.541  10.229
   81MYC     C614599   2.588   5.482  10.086
   81MYC     H814600   2.487   5.443  10.071
   81MYC     H914601   2.650   5.418  10.022
   81MYC     C514602   2.586   5.623  10.025
   81MYC     H614603   2.683   5.674  10.026
   81MYC     H714604   2.521   5.688  10.085
   81MYC     C414605   2.512   5.635   9.890
   81MYC     H414606   2.521   5.738   9.853
   81MYC     H514607   2.404   5.617   9.903
   81MYC     C214608   2.561   5.550   9.772
   81MYC     H214609   2.671   5.548   9.775
   81MYC     O314610   2.501   5.423   9.790
   81MYC     H314611   2.430   5.415   9.723
   81MYC     C114612   2.524   5.607   9.634
   81MYC     H114613   2.541   5.714   9.620
   81MYC    C8114614   2.373   5.591   9.615
   81MYC    O8214615   2.300   5.689   9.609
   81MYC    O8314616   2.329   5.471   9.572
   81MYC   6H1514617   2.239   5.484   9.538
   81MYC    C2014618   2.603   5.542   9.520
   81MYC    H3414619   2.711   5.555   9.534
   81MYC    H3514620   2.587   5.433   9.522
   81MYC    C2114621   2.572   5.593   9.378
   81MYC    H3614622   2.483   5.657   9.373
   81MYC    H3714623   2.654   5.663   9.355
   81MYC    C2214624   2.570   5.487   9.267
   81MYC    H3814625   2.650   5.419   9.299
   81MYC    H3914626   2.475   5.433   9.264
   81MYC    C2314627   2.602   5.549   9.130
   81MYC    H4014628   2.526   5.626   9.111
   81MYC    H4114629   2.691   5.612   9.139
   81MYC    C2414630   2.620   5.444   9.019
   81MYC    H4214631   2.684   5.360   9.049
   81MYC    H4314632   2.522   5.399   9.001
   81MYC    C2514633   2.688   5.503   8.894
   81MYC    H4414634   2.783   5.550   8.922
   81MYC    H4514635   2.709   5.419   8.827
   81MYC    C2614636   2.613   5.610   8.812
   81MYC    H4614637   2.506   5.585   8.808
   81MYC    H4714638   2.632   5.705   8.863
   81MYC    C2714639   2.670   5.619   8.670
   81MYC    H4814640   2.636   5.720   8.643
   81MYC    H4914641   2.780   5.619   8.666
   81MYC    C2814642   2.608   5.526   8.563
   81MYC    H5014643   2.624   5.422   8.592
   81MYC    H5114644   2.501   5.545   8.551
   81MYC    C2914645   2.680   5.549   8.429
   81MYC    H5214646   2.705   5.654   8.414
   81MYC    H5314647   2.784   5.514   8.432
   81MYC    C3014648   2.607   5.506   8.301
   81MYC    H5414649   2.595   5.397   8.293
   81MYC    H5514650   2.505   5.546   8.306
   81MYC    C3114651   2.678   5.560   8.176
   81MYC    H5614652   2.682   5.670   8.184
   81MYC    H5714653   2.781   5.524   8.170
   81MYC    C3214654   2.601   5.534   8.045
   81MYC    H5814655   2.579   5.427   8.043
   81MYC    H5914656   2.506   5.589   8.047
   81MYC    C3314657   2.690   5.569   7.924
   81MYC    H6014658   2.702   5.678   7.924
   81MYC    H6114659   2.787   5.519   7.937
   81MYC    C3414660   2.636   5.521   7.788
   81MYC    H6214661   2.655   5.413   7.781
   81MYC    H6314662   2.530   5.547   7.783
   81MYC    C3514663   2.699   5.577   7.659
   81MYC    H6414664   2.701   5.686   7.667
   81MYC    H6514665   2.803   5.541   7.654
   81MYC    C3614666   2.636   5.551   7.522
   81MYC    H6614667   2.638   5.442   7.505
   81MYC    H6714668   2.528   5.572   7.522
   81MYC    C3714669   2.702   5.620   7.402
   81MYC    H6814670   2.693   5.729   7.414
   81MYC    H6914671   2.811   5.608   7.402
   81MYC    C3814672   2.640   5.588   7.265
   81MYC    H7014673   2.632   5.480   7.249
   81MYC    H7114674   2.536   5.624   7.263
   81MYC    C3914675   2.723   5.646   7.148
   81MYC    H7214676   2.741   5.749   7.180
   81MYC    H7314677   2.818   5.594   7.134
   81MYC    C4014678   2.640   5.643   7.019
   81MYC    H7414679   2.639   5.538   6.986
   81MYC    H7514680   2.538   5.683   7.026
   81MYC    C4114681   2.716   5.720   6.909
   81MYC    H7614682   2.707   5.829   6.922
   81MYC    H7714683   2.822   5.699   6.930
   81MYC    C4214684   2.674   5.680   6.767
   81MYC    H7814685   2.720   5.589   6.725
   81MYC    H7914686   2.566   5.664   6.772
   81MYC    C4314687   2.706   5.797   6.674
   81MYC    H8014688   2.712   5.758   6.571
   81MYC    H8114689   2.805   5.837   6.702
   81MYC    H8214690   2.630   5.875   6.681
   82MYC   5H1514691   3.480   5.133   6.666
   82MYC    C8014692   3.477   5.198   6.753
   82MYC   3H1514693   3.534   5.288   6.727
   82MYC   4H1514694   3.371   5.225   6.760
   82MYC    C7914695   3.533   5.130   6.879
   82MYC   1H1514696   3.642   5.134   6.876
   82MYC   2H1514697   3.511   5.023   6.872
   82MYC    C7814698   3.477   5.185   7.012
   82MYC   9H1414699   3.369   5.169   7.008
   82MYC   0H1514700   3.492   5.294   7.011
   82MYC    C7714701   3.541   5.117   7.134
   82MYC   7H1414702   3.650   5.133   7.143
   82MYC   8H1414703   3.527   5.008   7.131
   82MYC    C7614704   3.486   5.171   7.267
   82MYC   5H1414705   3.385   5.129   7.271
   82MYC   6H1414706   3.491   5.281   7.263
   82MYC    C7514707   3.566   5.130   7.392
   82MYC   3H1414708   3.670   5.164   7.392
   82MYC   4H1414709   3.566   5.021   7.396
   82MYC    C7414710   3.490   5.177   7.517
   82MYC   1H1414711   3.399   5.116   7.528
   82MYC   2H1414712   3.463   5.283   7.510
   82MYC    C7314713   3.582   5.156   7.638
   82MYC   9H1314714   3.652   5.241   7.632
   82MYC   0H1414715   3.630   5.058   7.642
   82MYC    C7214716   3.497   5.162   7.767
   82MYC   7H1314717   3.413   5.092   7.771
   82MYC   8H1314718   3.461   5.266   7.770
   82MYC    C7114719   3.576   5.136   7.896
   82MYC   5H1314720   3.671   5.190   7.895
   82MYC   6H1314721   3.597   5.028   7.892
   82MYC    C7014722   3.500   5.170   8.025
   82MYC   3H1314723   3.407   5.112   8.019
   82MYC   4H1314724   3.464   5.273   8.017
   82MYC    C6914725   3.573   5.134   8.156
   82MYC   1H1314726   3.667   5.191   8.162
   82MYC   2H1314727   3.595   5.027   8.161
   82MYC    C6814728   3.488   5.171   8.278
   82MYC   9H1214729   3.394   5.114   8.275
   82MYC   0H1314730   3.463   5.277   8.275
   82MYC    C6714731   3.562   5.139   8.409
   82MYC   7H1214732   3.654   5.199   8.422
   82MYC   8H1214733   3.592   5.034   8.415
   82MYC    C6614734   3.482   5.175   8.535
   82MYC   5H1214735   3.396   5.106   8.545
   82MYC   6H1214736   3.426   5.267   8.514
   82MYC    C6514737   3.570   5.185   8.660
   82MYC   3H1214738   3.653   5.257   8.656
   82MYC   4H1214739   3.615   5.087   8.684
   82MYC    C6414740   3.488   5.217   8.786
   82MYC   1H1214741   3.400   5.152   8.780
   82MYC   2H1214742   3.458   5.323   8.779
   82MYC    C6314743   3.558   5.199   8.922
   82MYC   9H1114744   3.647   5.264   8.918
   82MYC   0H1214745   3.592   5.096   8.934
   82MYC    C6214746   3.475   5.231   9.048
   82MYC   7H1114747   3.382   5.174   9.056
   82MYC   8H1114748   3.450   5.337   9.062
   82MYC    C6114749   3.555   5.189   9.172
   82MYC   5H1114750   3.656   5.229   9.163
   82MYC   6H1114751   3.561   5.079   9.166
   82MYC    C6014752   3.489   5.217   9.306
   82MYC   4H1114753   3.393   5.169   9.323
   82MYC    C5814754   3.582   5.245   9.421
   82MYC   1H1114755   3.689   5.251   9.405
   82MYC    C5914756   3.505   5.358   9.358
   82MYC   2H1114757   3.424   5.402   9.416
   82MYC   3H1114758   3.567   5.430   9.305
   82MYC    C5714759   3.551   5.205   9.565
   82MYC   9H1014760   3.446   5.175   9.564
   82MYC   0H1114761   3.561   5.295   9.628
   82MYC    C5614762   3.627   5.078   9.606
   82MYC   7H1014763   3.732   5.111   9.612
   82MYC   8H1014764   3.622   5.001   9.528
   82MYC    C5514765   3.573   5.020   9.738
   82MYC   5H1014766   3.648   4.954   9.782
   82MYC   6H1014767   3.486   4.962   9.706
   82MYC    C5414768   3.552   5.126   9.848
   82MYC   3H1014769   3.474   5.196   9.815
   82MYC   4H1014770   3.646   5.180   9.858
   82MYC    C5314771   3.520   5.049   9.977
   82MYC   1H1014772   3.609   4.989  10.004
   82MYC   2H1014773   3.426   4.993   9.967
   82MYC    C5214774   3.515   5.153  10.089
   82MYC    H9914775   3.447   5.233  10.060
   82MYC   0H1014776   3.616   5.197  10.097
   82MYC    C5114777   3.462   5.086  10.217
   82MYC    H9714778   3.497   4.982  10.223
   82MYC    H9814779   3.352   5.093  10.224
   82MYC    C5014780   3.519   5.163  10.337
   82MYC    H9514781   3.471   5.261  10.332
   82MYC    H9614782   3.629   5.164  10.329
   82MYC    C4914783   3.474   5.097  10.468
   82MYC    H9314784   3.532   5.003  10.469
   82MYC    H9414785   3.367   5.072  10.467
   82MYC    C4814786   3.499   5.186  10.591
   82MYC    H9114787   3.455   5.286  10.581
   82MYC    H9214788   3.606   5.208  10.592
   82MYC    C4714789   3.466   5.110  10.720
   82MYC    H8914790   3.531   5.022  10.723
   82MYC    H9014791   3.360   5.082  10.723
   82MYC    C4614792   3.508   5.187  10.847
   82MYC    H8714793   3.463   5.286  10.851
   82MYC    H8814794   3.618   5.189  10.843
   82MYC    C4514795   3.473   5.110  10.975
   82MYC    H8514796   3.544   5.027  10.987
   82MYC    H8614797   3.376   5.058  10.972
   82MYC    C4414798   3.483   5.187  11.108
   82MYC    H8314799   3.477   5.107  11.183
   82MYC    H8414800   3.390   5.236  11.139
   82MYC    C1814801   3.607   5.271  11.131
   82MYC    H3114802   3.691   5.243  11.068
   82MYC    C1714803   3.594   5.419  11.156
   82MYC    H3014804   3.488   5.446  11.150
   82MYC    C1914805   3.637   5.328  11.268
   82MYC    H3214806   3.568   5.313  11.350
   82MYC    H3314807   3.740   5.338  11.301
   82MYC    C1614808   3.694   5.521  11.103
   82MYC    H2814809   3.759   5.475  11.028
   82MYC    H2914810   3.769   5.547  11.179
   82MYC    C1514811   3.619   5.633  11.028
   82MYC    H2614812   3.695   5.709  11.004
   82MYC    H2714813   3.539   5.680  11.086
   82MYC    C1414814   3.562   5.575  10.898
   82MYC    H2414815   3.478   5.506  10.912
   82MYC    H2514816   3.647   5.531  10.844
   82MYC    C1314817   3.515   5.698  10.819
   82MYC    H2214818   3.601   5.760  10.792
   82MYC    H2314819   3.462   5.764  10.890
   82MYC    C1214820   3.422   5.670  10.700
   82MYC    H2014821   3.320   5.656  10.736
   82MYC    H2114822   3.452   5.583  10.641
   82MYC    C1114823   3.424   5.796  10.611
   82MYC    H1814824   3.521   5.821  10.567
   82MYC    H1914825   3.390   5.885  10.665
   82MYC    C1014826   3.323   5.778  10.496
   82MYC    H1614827   3.284   5.875  10.463
   82MYC    H1714828   3.233   5.722  10.526
   82MYC     C914829   3.383   5.692  10.384
   82MYC    H1414830   3.410   5.590  10.414
   82MYC    H1514831   3.468   5.740  10.334
   82MYC     C814832   3.285   5.665  10.268
   82MYC    H1214833   3.215   5.749  10.265
   82MYC    H1314834   3.221   5.579  10.288
   82MYC     C714835   3.352   5.654  10.130
   82MYC    H1014836   3.433   5.581  10.144
   82MYC    H1114837   3.401   5.750  10.109
   82MYC     C614838   3.255   5.594  10.027
   82MYC     H814839   3.158   5.643  10.039
   82MYC     H914840   3.236   5.489  10.053
   82MYC     C514841   3.302   5.609   9.881
   82MYC     H614842   3.222   5.552   9.832
   82MYC     H714843   3.394   5.557   9.851
   82MYC     C414844   3.302   5.757   9.838
   82MYC     H414845   3.399   5.797   9.868
   82MYC     H514846   3.219   5.811   9.885
   82MYC     C214847   3.298   5.768   9.685
   82MYC     H214848   3.347   5.680   9.640
   82MYC     O314849   3.162   5.755   9.647
   82MYC     H314850   3.113   5.832   9.683
   82MYC     C114851   3.354   5.899   9.628
   82MYC     H114852   3.462   5.906   9.647
   82MYC    C8114853   3.288   6.022   9.689
   82MYC    O8214854   3.177   6.022   9.738
   82MYC    O8314855   3.354   6.138   9.667
   82MYC   6H1514856   3.297   6.214   9.685
   82MYC    C2014857   3.340   5.907   9.475
   82MYC    H3414858   3.236   5.880   9.455
   82MYC    H3514859   3.371   6.005   9.437
   82MYC    C2114860   3.440   5.809   9.411
   82MYC    H3614861   3.546   5.831   9.428
   82MYC    H3714862   3.435   5.707   9.452
   82MYC    C2214863   3.412   5.814   9.260
   82MYC    H3814864   3.310   5.778   9.239
   82MYC    H3914865   3.417   5.918   9.227
   82MYC    C2314866   3.505   5.721   9.181
   82MYC    H4014867   3.604   5.767   9.182
   82MYC    H4114868   3.507   5.625   9.233
   82MYC    C2414869   3.464   5.700   9.034
   82MYC    H4214870   3.376   5.634   9.035
   82MYC    H4314871   3.434   5.795   8.988
   82MYC    C2514872   3.576   5.645   8.945
   82MYC    H4414873   3.668   5.704   8.943
   82MYC    H4514874   3.619   5.549   8.978
   82MYC    C2614875   3.524   5.650   8.801
   82MYC    H4614876   3.425   5.606   8.786
   82MYC    H4714877   3.504   5.755   8.776
   82MYC    C2714878   3.627   5.594   8.701
   82MYC    H4814879   3.720   5.651   8.707
   82MYC    H4914880   3.662   5.495   8.734
   82MYC    C2814881   3.562   5.587   8.562
   82MYC    H5014882   3.501   5.497   8.545
   82MYC    H5114883   3.502   5.677   8.545
   82MYC    C2914884   3.665   5.572   8.449
   82MYC    H5214885   3.725   5.664   8.446
   82MYC    H5314886   3.728   5.483   8.460
   82MYC    C3014887   3.588   5.577   8.316
   82MYC    H5414888   3.529   5.486   8.300
   82MYC    H5514889   3.524   5.666   8.314
   82MYC    C3114890   3.682   5.580   8.194
   82MYC    H5614891   3.744   5.669   8.209
   82MYC    H5714892   3.745   5.490   8.204
   82MYC    C3214893   3.600   5.580   8.064
   82MYC    H5814894   3.527   5.498   8.066
   82MYC    H5914895   3.543   5.674   8.064
   82MYC    C3314896   3.687   5.577   7.937
   82MYC    H6014897   3.744   5.670   7.936
   82MYC    H6114898   3.757   5.493   7.934
   82MYC    C3414899   3.610   5.566   7.805
   82MYC    H6214900   3.574   5.464   7.788
   82MYC    H6314901   3.518   5.625   7.818
   82MYC    C3514902   3.678   5.618   7.677
   82MYC    H6414903   3.721   5.717   7.693
   82MYC    H6514904   3.765   5.556   7.651
   82MYC    C3614905   3.578   5.637   7.562
   82MYC    H6614906   3.521   5.543   7.554
   82MYC    H6714907   3.501   5.712   7.583
   82MYC    C3714908   3.650   5.664   7.429
   82MYC    H6814909   3.712   5.754   7.427
   82MYC    H6914910   3.719   5.581   7.404
   82MYC    C3814911   3.549   5.665   7.312
   82MYC    H7014912   3.498   5.568   7.317
   82MYC    H7114913   3.485   5.753   7.324
   82MYC    C3914914   3.611   5.675   7.172
   82MYC    H7214915   3.673   5.765   7.170
   82MYC    H7314916   3.685   5.597   7.151
   82MYC    C4014917   3.502   5.683   7.063
   82MYC    H7414918   3.458   5.583   7.068
   82MYC    H7514919   3.417   5.744   7.098
   82MYC    C4114920   3.553   5.713   6.921
   82MYC    H7614921   3.583   5.818   6.924
   82MYC    H7714922   3.652   5.670   6.900
   82MYC    C4214923   3.453   5.674   6.810
   82MYC    H7814924   3.424   5.570   6.833
   82MYC    H7914925   3.365   5.738   6.820
   82MYC    C4314926   3.510   5.685   6.668
   82MYC    H8014927   3.432   5.659   6.595
   82MYC    H8114928   3.597   5.622   6.651
   82MYC    H8214929   3.532   5.792   6.655
   83MYC   5H1514930   4.005   5.855   6.624
   83MYC    C8014931   4.066   5.823   6.709
   83MYC   3H1514932   4.083   5.715   6.709
   83MYC   4H1514933   4.168   5.862   6.703
   83MYC    C7914934   4.002   5.861   6.844
   83MYC   1H1514935   3.913   5.801   6.865
   83MYC   2H1514936   3.979   5.968   6.844
   83MYC    C7814937   4.107   5.833   6.954
   83MYC   9H1414938   4.209   5.859   6.924
   83MYC   0H1514939   4.107   5.726   6.977
   83MYC    C7714940   4.073   5.898   7.089
   83MYC   7H1414941   3.965   5.884   7.103
   83MYC   8H1414942   4.097   6.005   7.090
   83MYC    C7614943   4.160   5.851   7.207
   83MYC   5H1414944   4.263   5.874   7.180
   83MYC   6H1414945   4.143   5.744   7.224
   83MYC    C7514946   4.106   5.921   7.333
   83MYC   3H1414947   3.996   5.912   7.337
   83MYC   4H1414948   4.132   6.027   7.332
   83MYC    C7414949   4.157   5.850   7.460
   83MYC   1H1414950   4.259   5.882   7.487
   83MYC   2H1414951   4.171   5.743   7.444
   83MYC    C7314952   4.072   5.863   7.587
   83MYC   9H1314953   3.967   5.843   7.561
   83MYC   0H1414954   4.062   5.969   7.612
   83MYC    C7214955   4.104   5.773   7.707
   83MYC   7H1314956   4.212   5.784   7.729
   83MYC   8H1314957   4.105   5.668   7.677
   83MYC    C7114958   4.012   5.795   7.829
   83MYC   5H1314959   3.977   5.697   7.865
   83MYC   6H1314960   3.921   5.849   7.802
   83MYC    C7014961   4.090   5.855   7.947
   83MYC   3H1314962   4.110   5.961   7.930
   83MYC   4H1314963   4.186   5.802   7.953
   83MYC    C6914964   4.018   5.830   8.081
   83MYC   1H1314965   3.973   5.730   8.081
   83MYC   2H1314966   3.930   5.895   8.077
   83MYC    C6814967   4.100   5.872   8.204
   83MYC   9H1214968   4.104   5.981   8.200
   83MYC   0H1314969   4.206   5.842   8.202
   83MYC    C6714970   4.031   5.812   8.328
   83MYC   7H1214971   4.041   5.702   8.329
   83MYC   8H1214972   3.922   5.822   8.329
   83MYC    C6614973   4.082   5.864   8.464
   83MYC   5H1214974   4.056   5.970   8.471
   83MYC   6H1214975   4.190   5.850   8.471
   83MYC    C6514976   4.002   5.789   8.572
   83MYC   3H1214977   3.996   5.681   8.557
   83MYC   4H1214978   3.897   5.822   8.579
   83MYC    C6414979   4.067   5.822   8.708
   83MYC   1H1214980   4.063   5.930   8.722
   83MYC   2H1214981   4.173   5.794   8.708
   83MYC    C6314982   3.990   5.755   8.823
   83MYC   9H1114983   3.936   5.668   8.782
   83MYC   0H1214984   3.918   5.829   8.861
   83MYC    C6214985   4.079   5.723   8.944
   83MYC   7H1114986   4.117   5.813   8.994
   83MYC   8H1114987   4.165   5.675   8.895
   83MYC    C6114988   4.014   5.627   9.044
   83MYC   5H1114989   4.017   5.521   9.015
   83MYC   6H1114990   3.907   5.651   9.047
   83MYC    C6014991   4.055   5.634   9.191
   83MYC   4H1114992   4.090   5.733   9.219
   83MYC    C5814993   3.973   5.554   9.288
   83MYC   1H1114994   3.897   5.492   9.240
   83MYC    C5914995   4.118   5.517   9.264
   83MYC   2H1114996   4.190   5.534   9.343
   83MYC   3H1114997   4.145   5.431   9.204
   83MYC    C5714998   3.927   5.611   9.422
   83MYC   9H1014999   3.841   5.676   9.402
   83MYC   0H1115000   4.007   5.665   9.473
   83MYC    C5615001   3.878   5.503   9.520
   83MYC   7H1015002   3.966   5.437   9.531
   83MYC   8H1015003   3.788   5.454   9.480
   83MYC    C5515004   3.836   5.568   9.653
   83MYC   5H1015005   3.728   5.583   9.649
   83MYC   6H1015006   3.879   5.668   9.663
   83MYC    C5415007   3.865   5.487   9.780
   83MYC   3H1015008   3.971   5.457   9.777
   83MYC   4H1015009   3.813   5.392   9.763
   83MYC    C5315010   3.820   5.546   9.914
   83MYC   1H1015011   3.715   5.576   9.927
   83MYC   2H1015012   3.878   5.637   9.931
   83MYC    C5215013   3.853   5.451  10.031
   83MYC    H9915014   3.954   5.412  10.016
   83MYC   0H1015015   3.785   5.366  10.020
   83MYC    C5115016   3.838   5.519  10.169
   83MYC    H9715017   3.741   5.570  10.181
   83MYC    H9815018   3.904   5.605  10.182
   83MYC    C5015019   3.850   5.414  10.281
   83MYC    H9515020   3.951   5.372  10.285
   83MYC    H9615021   3.790   5.327  10.252
   83MYC    C4915022   3.811   5.468  10.420
   83MYC    H9315023   3.801   5.382  10.487
   83MYC    H9415024   3.714   5.519  10.419
   83MYC    C4815025   3.922   5.555  10.481
   83MYC    H9115026   3.940   5.636  10.409
   83MYC    H9215027   4.013   5.494  10.489
   83MYC    C4715028   3.879   5.594  10.624
   83MYC    H8915029   3.819   5.514  10.670
   83MYC    H9015030   3.820   5.686  10.612
   83MYC    C4615031   3.995   5.624  10.720
   83MYC    H8715032   4.063   5.698  10.677
   83MYC    H8815033   4.057   5.535  10.736
   83MYC    C4515034   3.937   5.673  10.855
   83MYC    H8515035   3.893   5.583  10.900
   83MYC    H8615036   3.857   5.747  10.849
   83MYC    C4415037   4.042   5.721  10.956
   83MYC    H8315038   3.981   5.776  11.028
   83MYC    H8415039   4.100   5.797  10.902
   83MYC    C1815040   4.128   5.610  11.015
   83MYC    H3115041   4.136   5.517  10.959
   83MYC    C1715042   4.263   5.644  11.074
   83MYC    H3015043   4.307   5.743  11.081
   83MYC    C1915044   4.148   5.608  11.165
   83MYC    H3215045   4.104   5.689  11.224
   83MYC    H3315046   4.140   5.512  11.215
   83MYC    C1615047   4.373   5.541  11.048
   83MYC    H2815048   4.342   5.441  11.016
   83MYC    H2915049   4.428   5.524  11.141
   83MYC    C1515050   4.485   5.596  10.958
   83MYC    H2615051   4.572   5.530  10.960
   83MYC    H2715052   4.527   5.693  10.986
   83MYC    C1415053   4.439   5.612  10.812
   83MYC    H2415054   4.362   5.691  10.814
   83MYC    H2515055   4.398   5.518  10.773
   83MYC    C1315056   4.558   5.657  10.726
   83MYC    H2215057   4.621   5.568  10.715
   83MYC    H2315058   4.619   5.740  10.765
   83MYC    C1215059   4.507   5.707  10.590
   83MYC    H2015060   4.432   5.784  10.614
   83MYC    H2115061   4.464   5.617  10.545
   83MYC    C1115062   4.622   5.764  10.506
   83MYC    H1815063   4.705   5.693  10.502
   83MYC    H1915064   4.663   5.855  10.552
   83MYC    C1015065   4.576   5.816  10.368
   83MYC    H1615066   4.663   5.843  10.306
   83MYC    H1715067   4.517   5.908  10.376
   83MYC     C915068   4.488   5.713  10.295
   83MYC    H1415069   4.396   5.698  10.353
   83MYC    H1515070   4.532   5.612  10.289
   83MYC     C815071   4.448   5.767  10.157
   83MYC    H1215072   4.540   5.780  10.098
   83MYC    H1315073   4.405   5.865  10.182
   83MYC     C715074   4.338   5.681  10.093
   83MYC    H1015075   4.267   5.753  10.050
   83MYC    H1115076   4.280   5.630  10.170
   83MYC     C615077   4.391   5.589   9.982
   83MYC     H815078   4.437   5.500  10.028
   83MYC     H915079   4.467   5.647   9.928
   83MYC     C515080   4.273   5.555   9.888
   83MYC     H615081   4.244   5.652   9.846
   83MYC     H715082   4.187   5.522   9.947
   83MYC     C415083   4.299   5.461   9.770
   83MYC     H415084   4.207   5.447   9.713
   83MYC     H515085   4.325   5.363   9.813
   83MYC     C215086   4.402   5.506   9.665
   83MYC     H215087   4.347   5.509   9.570
   83MYC     O315088   4.452   5.637   9.690
   83MYC     H315089   4.500   5.652   9.607
   83MYC     C115090   4.518   5.406   9.656
   83MYC     H115091   4.469   5.310   9.635
   83MYC    C8115092   4.604   5.402   9.782
   83MYC    O8215093   4.707   5.466   9.792
   83MYC    O8315094   4.571   5.299   9.863
   83MYC   6H1515095   4.649   5.296   9.921
   83MYC    C2015096   4.606   5.422   9.531
   83MYC    H3415097   4.667   5.512   9.542
   83MYC    H3515098   4.680   5.341   9.539
   83MYC    C2115099   4.531   5.423   9.396
   83MYC    H3615100   4.448   5.350   9.395
   83MYC    H3715101   4.479   5.519   9.385
   83MYC    C2215102   4.620   5.395   9.274
   83MYC    H3815103   4.703   5.467   9.281
   83MYC    H3915104   4.661   5.294   9.287
   83MYC    C2315105   4.553   5.412   9.137
   83MYC    H4015106   4.481   5.330   9.123
   83MYC    H4115107   4.488   5.500   9.132
   83MYC    C2415108   4.664   5.427   9.031
   83MYC    H4215109   4.724   5.514   9.060
   83MYC    H4315110   4.726   5.336   9.031
   83MYC    C2515111   4.610   5.452   8.890
   83MYC    H4415112   4.550   5.366   8.856
   83MYC    H4515113   4.540   5.536   8.885
   83MYC    C2615114   4.726   5.470   8.791
   83MYC    H4615115   4.803   5.540   8.825
   83MYC    H4715116   4.780   5.374   8.783
   83MYC    C2715117   4.665   5.509   8.655
   83MYC    H4815118   4.587   5.435   8.631
   83MYC    H4915119   4.630   5.612   8.667
   83MYC    C2815120   4.770   5.498   8.543
   83MYC    H5015121   4.858   5.564   8.548
   83MYC    H5115122   4.802   5.393   8.546
   83MYC    C2915123   4.708   5.534   8.408
   83MYC    H5215124   4.608   5.490   8.396
   83MYC    H5315125   4.698   5.642   8.399
   83MYC    C3015126   4.794   5.478   8.293
   83MYC    H5415127   4.892   5.525   8.311
   83MYC    H5515128   4.817   5.372   8.307
   83MYC    C3115129   4.746   5.516   8.152
   83MYC    H5615130   4.640   5.492   8.137
   83MYC    H5715131   4.746   5.625   8.144
   83MYC    C3215132   4.837   5.458   8.042
   83MYC    H5815133   4.938   5.498   8.056
   83MYC    H5915134   4.845   5.349   8.044
   83MYC    C3315135   4.784   5.489   7.900
   83MYC    H6015136   4.683   5.449   7.884
   83MYC    H6115137   4.768   5.598   7.898
   83MYC    C3415138   4.877   5.454   7.783
   83MYC    H6215139   4.978   5.492   7.806
   83MYC    H6315140   4.878   5.344   7.776
   83MYC    C3515141   4.818   5.515   7.655
   83MYC    H6415142   4.711   5.529   7.670
   83MYC    H6515143   4.874   5.608   7.640
   83MYC    C3615144   4.844   5.439   7.524
   83MYC    H6615145   4.950   5.432   7.495
   83MYC    H6715146   4.805   5.337   7.529
   83MYC    C3715147   4.781   5.509   7.402
   83MYC    H6815148   4.674   5.495   7.421
   83MYC    H6915149   4.808   5.615   7.401
   83MYC    C3815150   4.807   5.445   7.264
   83MYC    H7015151   4.913   5.464   7.248
   83MYC    H7115152   4.793   5.337   7.283
   83MYC    C3915153   4.734   5.513   7.147
   83MYC    H7215154   4.626   5.503   7.165
   83MYC    H7315155   4.767   5.618   7.153
   83MYC    C4015156   4.758   5.449   7.010
   83MYC    H7415157   4.866   5.452   6.989
   83MYC    H7515158   4.719   5.346   7.011
   83MYC    C4115159   4.687   5.519   6.893
   83MYC    H7615160   4.579   5.508   6.906
   83MYC    H7715161   4.708   5.626   6.899
   83MYC    C4215162   4.733   5.469   6.755
   83MYC    H7815163   4.840   5.445   6.754
   83MYC    H7915164   4.686   5.371   6.743
   83MYC    C4315165   4.701   5.561   6.636
   83MYC    H8015166   4.766   5.533   6.552
   83MYC    H8115167   4.731   5.664   6.660
   83MYC    H8215168   4.598   5.544   6.602
   84MYC   5H1515169   5.340   5.397   6.628
   84MYC    C8015170   5.302   5.445   6.718
   84MYC   3H1515171   5.356   5.541   6.722
   84MYC   4H1515172   5.196   5.457   6.696
   84MYC    C7915173   5.327   5.348   6.835
   84MYC   1H1515174   5.434   5.329   6.850
   84MYC   2H1515175   5.282   5.250   6.812
   84MYC    C7815176   5.277   5.417   6.963
   84MYC   9H1415177   5.169   5.402   6.968
   84MYC   0H1515178   5.306   5.522   6.955
   84MYC    C7715179   5.332   5.347   7.088
   84MYC   7H1415180   5.441   5.361   7.100
   84MYC   8H1415181   5.312   5.239   7.092
   84MYC    C7615182   5.262   5.399   7.215
   84MYC   5H1415183   5.158   5.365   7.211
   84MYC   6H1415184   5.268   5.508   7.218
   84MYC    C7515185   5.333   5.349   7.343
   84MYC   3H1415186   5.441   5.351   7.326
   84MYC   4H1415187   5.314   5.247   7.377
   84MYC    C7415188   5.308   5.443   7.462
   84MYC   1H1415189   5.201   5.467   7.463
   84MYC   2H1415190   5.366   5.535   7.451
   84MYC    C7315191   5.342   5.379   7.598
   84MYC   9H1315192   5.450   5.359   7.604
   84MYC   0H1415193   5.292   5.282   7.609
   84MYC    C7215194   5.313   5.479   7.711
   84MYC   7H1315195   5.241   5.559   7.690
   84MYC   8H1315196   5.406   5.533   7.731
   84MYC    C7115197   5.269   5.397   7.834
   84MYC   5H1315198   5.350   5.330   7.866
   84MYC   6H1315199   5.180   5.337   7.812
   84MYC    C7015200   5.238   5.486   7.955
   84MYC   3H1315201   5.161   5.561   7.934
   84MYC   4H1315202   5.331   5.540   7.977
   84MYC    C6915203   5.205   5.396   8.076
   84MYC   1H1315204   5.289   5.330   8.096
   84MYC   2H1315205   5.119   5.332   8.053
   84MYC    C6815206   5.183   5.483   8.201
   84MYC   9H1215207   5.077   5.511   8.201
   84MYC   0H1315208   5.236   5.579   8.201
   84MYC    C6715209   5.215   5.406   8.330
   84MYC   7H1215210   5.322   5.383   8.335
   84MYC   8H1215211   5.163   5.311   8.346
   84MYC    C6615212   5.181   5.491   8.454
   84MYC   5H1215213   5.073   5.477   8.458
   84MYC   6H1215214   5.206   5.595   8.434
   84MYC    C6515215   5.234   5.437   8.589
   84MYC   3H1215216   5.330   5.483   8.613
   84MYC   4H1215217   5.243   5.328   8.589
   84MYC    C6415218   5.134   5.471   8.700
   84MYC   1H1215219   5.041   5.414   8.685
   84MYC   2H1215220   5.121   5.580   8.699
   84MYC    C6315221   5.197   5.426   8.833
   84MYC   9H1115222   5.274   5.497   8.865
   84MYC   0H1215223   5.244   5.327   8.827
   84MYC    C6215224   5.098   5.426   8.951
   84MYC   7H1115225   5.025   5.347   8.927
   84MYC   8H1115226   5.045   5.521   8.961
   84MYC    C6115227   5.166   5.393   9.085
   84MYC   5H1115228   5.259   5.451   9.096
   84MYC   6H1115229   5.212   5.293   9.081
   84MYC    C6015230   5.064   5.398   9.198
   84MYC   4H1115231   4.972   5.343   9.181
   84MYC    C5815232   5.117   5.386   9.339
   84MYC   1H1115233   5.223   5.372   9.354
   84MYC    C5915234   5.070   5.520   9.287
   84MYC   2H1115235   4.977   5.568   9.314
   84MYC   3H1115236   5.145   5.594   9.261
   84MYC    C5715237   5.035   5.310   9.443
   84MYC   9H1015238   5.037   5.202   9.421
   84MYC   0H1115239   4.930   5.333   9.421
   84MYC    C5615240   5.073   5.333   9.590
   84MYC   7H1015241   5.062   5.441   9.610
   84MYC   8H1015242   5.179   5.305   9.601
   84MYC    C5515243   4.988   5.266   9.699
   84MYC   5H1015244   4.982   5.158   9.682
   84MYC   6H1015245   4.881   5.289   9.702
   84MYC    C5415246   5.051   5.287   9.837
   84MYC   3H1015247   5.041   5.390   9.875
   84MYC   4H1015248   5.158   5.260   9.837
   84MYC    C5315249   4.986   5.203   9.948
   84MYC   1H1015250   5.029   5.103   9.957
   84MYC   2H1015251   4.882   5.186   9.915
   84MYC    C5215252   5.010   5.275  10.081
   84MYC    H9915253   4.948   5.365  10.072
   84MYC   0H1015254   5.116   5.303  10.093
   84MYC    C5115255   4.959   5.195  10.202
   84MYC    H9715256   5.005   5.095  10.195
   84MYC    H9815257   4.850   5.185  10.193
   84MYC    C5015258   5.004   5.275  10.326
   84MYC    H9515259   4.937   5.362  10.328
   84MYC    H9615260   5.112   5.294  10.318
   84MYC    C4915261   4.975   5.200  10.457
   84MYC    H9315262   5.023   5.101  10.448
   84MYC    H9415263   4.869   5.183  10.477
   84MYC    C4815264   5.050   5.257  10.579
   84MYC    H9115265   5.035   5.366  10.580
   84MYC    H9215266   5.159   5.246  10.572
   84MYC    C4715267   4.994   5.201  10.711
   84MYC    H8915268   5.023   5.095  10.724
   84MYC    H9015269   4.886   5.208  10.724
   84MYC    C4615270   5.053   5.276  10.831
   84MYC    H8715271   5.027   5.382  10.823
   84MYC    H8815272   5.161   5.267  10.815
   84MYC    C4515273   5.016   5.223  10.971
   84MYC    H8515274   5.088   5.141  10.984
   84MYC    H8615275   4.915   5.181  10.969
   84MYC    C4415276   5.028   5.309  11.098
   84MYC    H8315277   5.014   5.246  11.187
   84MYC    H8415278   4.938   5.372  11.097
   84MYC    C1815279   5.158   5.388  11.104
   84MYC    H3115280   5.230   5.365  11.026
   84MYC    C1715281   5.164   5.530  11.155
   84MYC    H3015282   5.066   5.566  11.185
   84MYC    C1915283   5.207   5.417  11.244
   84MYC    H3215284   5.146   5.380  11.327
   84MYC    H3315285   5.313   5.418  11.266
   84MYC    C1615286   5.260   5.637  11.104
   84MYC    H2815287   5.345   5.587  11.057
   84MYC    H2915288   5.293   5.687  11.196
   84MYC    C1515289   5.200   5.745  11.012
   84MYC    H2615290   5.245   5.843  11.030
   84MYC    H2715291   5.096   5.754  11.046
   84MYC    C1415292   5.208   5.709  10.863
   84MYC    H2415293   5.137   5.764  10.800
   84MYC    H2515294   5.170   5.608  10.845
   84MYC    C1315295   5.350   5.731  10.808
   84MYC    H2215296   5.417   5.650  10.840
   84MYC    H2315297   5.386   5.833  10.826
   84MYC    C1215298   5.344   5.721  10.655
   84MYC    H2015299   5.256   5.768  10.609
   84MYC    H2115300   5.326   5.616  10.627
   84MYC    C1115301   5.478   5.766  10.593
   84MYC    H1815302   5.558   5.692  10.608
   84MYC    H1915303   5.510   5.857  10.644
   84MYC    C1015304   5.468   5.795  10.442
   84MYC    H1615305   5.561   5.836  10.401
   84MYC    H1715306   5.393   5.872  10.422
   84MYC     C915307   5.433   5.667  10.364
   84MYC    H1415308   5.333   5.635  10.395
   84MYC    H1515309   5.498   5.581  10.386
   84MYC     C815310   5.444   5.683  10.211
   84MYC    H1215311   5.542   5.728  10.193
   84MYC    H1315312   5.366   5.745  10.165
   84MYC     C715313   5.442   5.544  10.146
   84MYC    H1015314   5.342   5.503  10.167
   84MYC    H1115315   5.516   5.473  10.185
   84MYC     C615316   5.463   5.557   9.994
   84MYC     H815317   5.569   5.580   9.979
   84MYC     H915318   5.406   5.645   9.960
   84MYC     C515319   5.409   5.439   9.911
   84MYC     H615320   5.304   5.421   9.935
   84MYC     H715321   5.456   5.343   9.939
   84MYC     C415322   5.440   5.467   9.763
   84MYC     H415323   5.450   5.381   9.696
   84MYC     H515324   5.539   5.513   9.764
   84MYC     C215325   5.342   5.564   9.695
   84MYC     H215326   5.295   5.495   9.624
   84MYC     O315327   5.242   5.625   9.775
   84MYC     H315328   5.155   5.584   9.758
   84MYC     C115329   5.410   5.676   9.614
   84MYC     H115330   5.506   5.634   9.582
   84MYC    C8115331   5.429   5.807   9.689
   84MYC    O8215332   5.373   5.911   9.660
   84MYC    O8315333   5.530   5.812   9.779
   84MYC   6H1515334   5.531   5.906   9.804
   84MYC    C2015335   5.345   5.699   9.477
   84MYC    H3415336   5.334   5.602   9.426
   84MYC    H3515337   5.240   5.725   9.498
   84MYC    C2115338   5.420   5.795   9.383
   84MYC    H3615339   5.465   5.876   9.443
   84MYC    H3715340   5.509   5.750   9.338
   84MYC    C2215341   5.334   5.854   9.270
   84MYC    H3815342   5.246   5.788   9.258
   84MYC    H3915343   5.297   5.955   9.292
   84MYC    C2315344   5.417   5.855   9.141
   84MYC    H4015345   5.492   5.935   9.137
   84MYC    H4115346   5.471   5.761   9.127
   84MYC    C2415347   5.337   5.870   9.010
   84MYC    H4215348   5.250   5.805   9.023
   84MYC    H4315349   5.297   5.972   9.004
   84MYC    C2515350   5.434   5.849   8.892
   84MYC    H4415351   5.516   5.922   8.885
   84MYC    H4515352   5.486   5.754   8.901
   84MYC    C2615353   5.354   5.846   8.761
   84MYC    H4615354   5.276   5.768   8.768
   84MYC    H4715355   5.296   5.939   8.753
   84MYC    C2715356   5.448   5.827   8.641
   84MYC    H4815357   5.533   5.896   8.640
   84MYC    H4915358   5.488   5.725   8.651
   84MYC    C2815359   5.366   5.846   8.512
   84MYC    H5015360   5.280   5.778   8.517
   84MYC    H5115361   5.323   5.946   8.500
   84MYC    C2915362   5.461   5.821   8.393
   84MYC    H5215363   5.564   5.853   8.414
   84MYC    H5315364   5.466   5.713   8.374
   84MYC    C3015365   5.406   5.893   8.269
   84MYC    H5415366   5.297   5.904   8.277
   84MYC    H5515367   5.449   5.994   8.268
   84MYC    C3115368   5.452   5.819   8.142
   84MYC    H5615369   5.562   5.816   8.141
   84MYC    H5715370   5.419   5.715   8.154
   84MYC    C3215371   5.405   5.889   8.013
   84MYC    H5815372   5.300   5.863   7.994
   84MYC    H5915373   5.422   5.997   8.017
   84MYC    C3315374   5.476   5.825   7.892
   84MYC    H6015375   5.576   5.865   7.872
   84MYC    H6115376   5.494   5.718   7.908
   84MYC    C3415377   5.407   5.846   7.757
   84MYC    H6215378   5.318   5.784   7.767
   84MYC    H6315379   5.366   5.948   7.755
   84MYC    C3515380   5.480   5.812   7.625
   84MYC    H6415381   5.569   5.875   7.612
   84MYC    H6515382   5.521   5.711   7.620
   84MYC    C3615383   5.392   5.855   7.506
   84MYC    H6615384   5.300   5.801   7.531
   84MYC    H6715385   5.351   5.957   7.511
   84MYC    C3715386   5.447   5.822   7.367
   84MYC    H6815387   5.554   5.847   7.365
   84MYC    H6915388   5.449   5.715   7.342
   84MYC    C3815389   5.373   5.896   7.254
   84MYC    H7015390   5.267   5.903   7.278
   84MYC    H7115391   5.410   6.000   7.244
   84MYC    C3915392   5.389   5.830   7.116
   84MYC    H7215393   5.496   5.827   7.092
   84MYC    H7315394   5.344   5.730   7.117
   84MYC    C4015395   5.322   5.916   7.008
   84MYC    H7415396   5.213   5.925   7.019
   84MYC    H7515397   5.352   6.022   7.008
   84MYC    C4115398   5.347   5.860   6.867
   84MYC    H7615399   5.449   5.819   6.872
   84MYC    H7715400   5.276   5.777   6.860
   84MYC    C4215401   5.330   5.964   6.755
   84MYC    H7815402   5.227   6.000   6.759
   84MYC    H7915403   5.390   6.055   6.767
   84MYC    C4315404   5.356   5.899   6.618
   84MYC    H8015405   5.305   5.968   6.550
   84MYC    H8115406   5.312   5.800   6.601
   84MYC    H8215407   5.461   5.899   6.588
   85MYC   5H1515408   5.737   5.143   6.641
   85MYC    C8015409   5.747   5.206   6.730
   85MYC   3H1515410   5.836   5.268   6.712
   85MYC   4H1515411   5.663   5.277   6.728
   85MYC    C7915412   5.750   5.118   6.856
   85MYC   1H1515413   5.833   5.046   6.849
   85MYC   2H1515414   5.652   5.070   6.853
   85MYC    C7815415   5.777   5.207   6.978
   85MYC   9H1415416   5.719   5.300   6.973
   85MYC   0H1515417   5.883   5.236   6.978
   85MYC    C7715418   5.757   5.126   7.107
   85MYC   7H1415419   5.827   5.042   7.109
   85MYC   8H1415420   5.651   5.099   7.097
   85MYC    C7615421   5.756   5.209   7.236
   85MYC   5H1415422   5.662   5.264   7.251
   85MYC   6H1415423   5.837   5.283   7.239
   85MYC    C7515424   5.769   5.121   7.362
   85MYC   3H1415425   5.867   5.071   7.361
   85MYC   4H1415426   5.695   5.042   7.352
   85MYC    C7415427   5.755   5.208   7.488
   85MYC   1H1415428   5.650   5.239   7.494
   85MYC   2H1415429   5.808   5.304   7.478
   85MYC    C7315430   5.808   5.158   7.624
   85MYC   9H1315431   5.917   5.169   7.636
   85MYC   0H1415432   5.775   5.056   7.646
   85MYC    C7215433   5.748   5.240   7.739
   85MYC   7H1315434   5.639   5.233   7.736
   85MYC   8H1315435   5.775   5.346   7.731
   85MYC    C7115436   5.788   5.189   7.879
   85MYC   5H1315437   5.897   5.205   7.882
   85MYC   6H1315438   5.768   5.082   7.893
   85MYC    C7015439   5.725   5.270   7.993
   85MYC   3H1315440   5.617   5.287   7.980
   85MYC   4H1315441   5.760   5.374   7.993
   85MYC    C6915442   5.752   5.209   8.131
   85MYC   1H1315443   5.860   5.196   8.150
   85MYC   2H1315444   5.714   5.106   8.138
   85MYC    C6815445   5.680   5.281   8.246
   85MYC   9H1215446   5.576   5.245   8.240
   85MYC   0H1315447   5.685   5.389   8.231
   85MYC    C6715448   5.731   5.242   8.386
   85MYC   7H1215449   5.838   5.264   8.398
   85MYC   8H1215450   5.722   5.133   8.396
   85MYC    C6615451   5.642   5.306   8.494
   85MYC   5H1215452   5.536   5.290   8.472
   85MYC   6H1215453   5.651   5.415   8.487
   85MYC    C6515454   5.670   5.248   8.634
   85MYC   3H1215455   5.775   5.265   8.661
   85MYC   4H1215456   5.640   5.142   8.636
   85MYC    C6415457   5.590   5.327   8.739
   85MYC   1H1215458   5.484   5.317   8.711
   85MYC   2H1215459   5.618   5.433   8.733
   85MYC    C6315460   5.626   5.280   8.881
   85MYC   9H1115461   5.734   5.268   8.893
   85MYC   0H1215462   5.590   5.178   8.897
   85MYC    C6215463   5.581   5.359   9.005
   85MYC   7H1115464   5.475   5.388   9.003
   85MYC   8H1115465   5.641   5.452   9.009
   85MYC    C6115466   5.614   5.282   9.134
   85MYC   5H1115467   5.696   5.212   9.116
   85MYC   6H1115468   5.536   5.205   9.147
   85MYC    C6015469   5.635   5.365   9.260
   85MYC   4H1115470   5.539   5.389   9.306
   85MYC    C5815471   5.748   5.337   9.356
   85MYC   1H1115472   5.826   5.268   9.324
   85MYC    C5915473   5.753   5.459   9.268
   85MYC   2H1115474   5.730   5.552   9.320
   85MYC   3H1115475   5.810   5.470   9.177
   85MYC    C5715476   5.735   5.358   9.506
   85MYC   9H1015477   5.629   5.348   9.533
   85MYC   0H1115478   5.770   5.460   9.529
   85MYC    C5615479   5.807   5.263   9.604
   85MYC   7H1015480   5.913   5.287   9.598
   85MYC   8H1015481   5.791   5.160   9.571
   85MYC    C5515482   5.757   5.290   9.747
   85MYC   5H1015483   5.665   5.236   9.771
   85MYC   6H1015484   5.727   5.395   9.751
   85MYC    C5415485   5.854   5.257   9.862
   85MYC   3H1015486   5.953   5.302   9.848
   85MYC   4H1015487   5.872   5.149   9.855
   85MYC    C5315488   5.802   5.277  10.005
   85MYC   1H1015489   5.710   5.217  10.013
   85MYC   2H1015490   5.770   5.382  10.018
   85MYC    C5215491   5.903   5.244  10.116
   85MYC    H9915492   5.966   5.333  10.126
   85MYC   0H1015493   5.971   5.165  10.081
   85MYC    C5115494   5.852   5.207  10.256
   85MYC    H9715495   5.933   5.151  10.303
   85MYC    H9815496   5.769   5.143  10.224
   85MYC    C5015497   5.805   5.326  10.342
   85MYC    H9515498   5.717   5.372  10.297
   85MYC    H9615499   5.881   5.405  10.337
   85MYC    C4915500   5.773   5.293  10.489
   85MYC    H9315501   5.835   5.204  10.505
   85MYC    H9415502   5.666   5.274  10.499
   85MYC    C4815503   5.812   5.408  10.584
   85MYC    H9115504   5.782   5.497  10.529
   85MYC    H9215505   5.921   5.415  10.594
   85MYC    C4715506   5.730   5.398  10.714
   85MYC    H8915507   5.735   5.292  10.742
   85MYC    H9015508   5.624   5.422  10.698
   85MYC    C4615509   5.793   5.487  10.822
   85MYC    H8715510   5.777   5.589  10.785
   85MYC    H8815511   5.901   5.465  10.823
   85MYC    C4515512   5.731   5.470  10.961
   85MYC    H8515513   5.766   5.371  10.992
   85MYC    H8615514   5.621   5.462  10.961
   85MYC    C4415515   5.754   5.573  11.072
   85MYC    H8315516   5.669   5.562  11.142
   85MYC    H8415517   5.734   5.677  11.043
   85MYC    C1815518   5.889   5.558  11.142
   85MYC    H3115519   5.937   5.466  11.110
   85MYC    C1715520   5.974   5.678  11.177
   85MYC    H3015521   5.932   5.777  11.161
   85MYC    C1915522   5.915   5.592  11.286
   85MYC    H3215523   5.837   5.643  11.344
   85MYC    H3315524   5.974   5.523  11.345
   85MYC    C1615525   6.125   5.672  11.163
   85MYC    H2815526   6.166   5.571  11.158
   85MYC    H2915527   6.174   5.717  11.251
   85MYC    C1515528   6.185   5.751  11.046
   85MYC    H2615529   6.294   5.757  11.044
   85MYC    H2715530   6.151   5.854  11.064
   85MYC    C1415531   6.152   5.690  10.909
   85MYC    H2415532   6.072   5.616  10.925
   85MYC    H2515533   6.241   5.641  10.867
   85MYC    C1315534   6.100   5.794  10.808
   85MYC    H2215535   6.152   5.890  10.815
   85MYC    H2315536   6.001   5.825  10.844
   85MYC    C1215537   6.103   5.743  10.663
   85MYC    H2015538   6.042   5.654  10.650
   85MYC    H2115539   6.207   5.732  10.628
   85MYC    C1115540   6.031   5.848  10.577
   85MYC    H1815541   6.066   5.948  10.607
   85MYC    H1915542   5.923   5.840  10.594
   85MYC    C1015543   6.064   5.832  10.428
   85MYC    H1615544   6.170   5.802  10.421
   85MYC    H1715545   6.062   5.924  10.368
   85MYC     C915546   5.966   5.735  10.360
   85MYC    H1415547   5.866   5.779  10.346
   85MYC    H1515548   5.954   5.649  10.426
   85MYC     C815549   6.016   5.675  10.228
   85MYC    H1215550   6.028   5.568  10.250
   85MYC    H1315551   6.115   5.718  10.208
   85MYC     C715552   5.925   5.699  10.107
   85MYC    H1015553   5.906   5.807  10.097
   85MYC    H1115554   5.823   5.659  10.114
   85MYC     C615555   5.983   5.636   9.979
   85MYC     H815556   6.004   5.530  10.000
   85MYC     H915557   6.081   5.681   9.960
   85MYC     C515558   5.898   5.665   9.855
   85MYC     H615559   5.874   5.772   9.859
   85MYC     H715560   5.801   5.613   9.853
   85MYC     C415561   5.974   5.639   9.724
   85MYC     H415562   5.955   5.531   9.713
   85MYC     H515563   6.080   5.663   9.737
   85MYC     C215564   5.920   5.712   9.599
   85MYC     H215565   5.945   5.637   9.523
   85MYC     O315566   5.779   5.723   9.600
   85MYC     H315567   5.753   5.771   9.680
   85MYC     C115568   5.985   5.847   9.564
   85MYC     H115569   6.093   5.830   9.556
   85MYC    C8115570   5.958   5.950   9.673
   85MYC    O8215571   5.888   6.050   9.665
   85MYC    O8315572   6.039   5.939   9.781
   85MYC   6H1515573   5.994   5.999   9.843
   85MYC    C2015574   5.934   5.898   9.428
   85MYC    H3415575   5.826   5.917   9.432
   85MYC    H3515576   5.979   5.996   9.406
   85MYC    C2115577   5.950   5.806   9.307
   85MYC    H3615578   6.018   5.723   9.330
   85MYC    H3715579   5.854   5.757   9.290
   85MYC    C2215580   6.014   5.868   9.181
   85MYC    H3815581   5.959   5.961   9.168
   85MYC    H3915582   6.119   5.892   9.203
   85MYC    C2315583   6.005   5.773   9.061
   85MYC    H4015584   6.084   5.698   9.062
   85MYC    H4115585   5.913   5.714   9.076
   85MYC    C2415586   5.992   5.843   8.924
   85MYC    H4215587   5.922   5.927   8.931
   85MYC    H4315588   6.089   5.882   8.889
   85MYC    C2515589   5.931   5.746   8.821
   85MYC    H4415590   5.987   5.652   8.829
   85MYC    H4515591   5.825   5.721   8.833
   85MYC    C2615592   5.951   5.789   8.675
   85MYC    H4615593   5.931   5.896   8.667
   85MYC    H4715594   6.057   5.781   8.647
   85MYC    C2715595   5.867   5.710   8.574
   85MYC    H4815596   5.904   5.606   8.566
   85MYC    H4915597   5.764   5.717   8.610
   85MYC    C2815598   5.886   5.774   8.435
   85MYC    H5015599   5.837   5.872   8.438
   85MYC    H5115600   5.993   5.784   8.413
   85MYC    C2915601   5.830   5.691   8.319
   85MYC    H5215602   5.894   5.602   8.323
   85MYC    H5315603   5.724   5.666   8.333
   85MYC    C3015604   5.855   5.759   8.183
   85MYC    H5415605   5.774   5.830   8.163
   85MYC    H5515606   5.943   5.824   8.177
   85MYC    C3115607   5.856   5.659   8.066
   85MYC    H5615608   5.950   5.605   8.079
   85MYC    H5715609   5.776   5.584   8.071
   85MYC    C3215610   5.863   5.739   7.935
   85MYC    H5815611   5.778   5.808   7.937
   85MYC    H5915612   5.951   5.805   7.930
   85MYC    C3315613   5.851   5.642   7.816
   85MYC    H6015614   5.925   5.562   7.826
   85MYC    H6115615   5.756   5.588   7.830
   85MYC    C3415616   5.868   5.715   7.681
   85MYC    H6215617   5.796   5.797   7.678
   85MYC    H6315618   5.971   5.751   7.674
   85MYC    C3515619   5.831   5.618   7.567
   85MYC    H6415620   5.914   5.547   7.559
   85MYC    H6515621   5.739   5.565   7.593
   85MYC    C3615622   5.816   5.703   7.440
   85MYC    H6615623   5.741   5.783   7.450
   85MYC    H6715624   5.913   5.752   7.425
   85MYC    C3715625   5.789   5.626   7.310
   85MYC    H6815626   5.846   5.532   7.310
   85MYC    H6915627   5.684   5.596   7.318
   85MYC    C3815628   5.814   5.699   7.177
   85MYC    H7015629   5.763   5.796   7.177
   85MYC    H7115630   5.921   5.707   7.155
   85MYC    C3915631   5.755   5.612   7.064
   85MYC    H7215632   5.816   5.521   7.056
   85MYC    H7315633   5.650   5.591   7.085
   85MYC    C4015634   5.770   5.684   6.929
   85MYC    H7415635   5.709   5.775   6.923
   85MYC    H7515636   5.874   5.715   6.917
   85MYC    C4115637   5.732   5.589   6.813
   85MYC    H7615638   5.784   5.493   6.826
   85MYC    H7715639   5.627   5.560   6.822
   85MYC    C4215640   5.772   5.645   6.676
   85MYC    H7815641   5.739   5.750   6.677
   85MYC    H7915642   5.882   5.652   6.675
   85MYC    C4315643   5.732   5.566   6.551
   85MYC    H8015644   5.755   5.620   6.458
   85MYC    H8115645   5.624   5.545   6.554
   85MYC    H8215646   5.784   5.469   6.547
   86MYC   5H1515647   6.229   0.395   6.177
   86MYC    C8015648   6.210   0.329   6.091
   86MYC   3H1515649   6.300   0.276   6.060
   86MYC   4H1515650   6.141   0.255   6.134
   86MYC    C7915651   6.155   0.422   5.981
   86MYC   1H1515652   6.235   0.490   5.950
   86MYC   2H1515653   6.073   0.476   6.030
   86MYC    C7815654   6.102   0.348   5.857
   86MYC   9H1415655   6.005   0.303   5.880
   86MYC   0H1515656   6.165   0.263   5.827
   86MYC    C7715657   6.094   0.448   5.740
   86MYC   7H1415658   6.196   0.487   5.726
   86MYC   8H1415659   6.022   0.529   5.759
   86MYC    C7615660   6.058   0.375   5.610
   86MYC   5H1415661   5.949   0.358   5.605
   86MYC   6H1415662   6.099   0.273   5.611
   86MYC    C7515663   6.102   0.456   5.488
   86MYC   3H1415664   6.212   0.457   5.487
   86MYC   4H1415665   6.072   0.561   5.498
   86MYC    C7415666   6.045   0.405   5.355
   86MYC   1H1415667   5.937   0.420   5.351
   86MYC   2H1415668   6.071   0.300   5.341
   86MYC    C7315669   6.107   0.482   5.236
   86MYC   9H1315670   6.205   0.526   5.260
   86MYC   0H1415671   6.053   0.576   5.218
   86MYC    C7215672   6.099   0.405   5.103
   86MYC   7H1315673   5.997   0.367   5.105
   86MYC   8H1315674   6.168   0.320   5.111
   86MYC    C7115675   6.122   0.491   4.978
   86MYC   5H1315676   6.214   0.548   4.997
   86MYC   6H1315677   6.045   0.569   4.972
   86MYC    C7015678   6.125   0.412   4.846
   86MYC   3H1315679   6.040   0.341   4.846
   86MYC   4H1315680   6.226   0.369   4.842
   86MYC    C6915681   6.104   0.493   4.718
   86MYC   1H1315682   6.173   0.579   4.712
   86MYC   2H1315683   6.001   0.528   4.701
   86MYC    C6815684   6.141   0.409   4.594
   86MYC   9H1215685   6.096   0.309   4.588
   86MYC   0H1315686   6.250   0.404   4.594
   86MYC    C6715687   6.112   0.478   4.460
   86MYC   7H1215688   6.152   0.580   4.472
   86MYC   8H1215689   6.004   0.481   4.443
   86MYC    C6615690   6.186   0.409   4.344
   86MYC   5H1215691   6.131   0.317   4.322
   86MYC   6H1215692   6.284   0.368   4.368
   86MYC    C6515693   6.174   0.493   4.215
   86MYC   3H1215694   6.208   0.597   4.224
   86MYC   4H1215695   6.067   0.505   4.198
   86MYC    C6415696   6.253   0.435   4.096
   86MYC   1H1215697   6.229   0.328   4.094
   86MYC   2H1215698   6.360   0.458   4.101
   86MYC    C6315699   6.205   0.488   3.960
   86MYC   9H1115700   6.228   0.595   3.948
   86MYC   0H1215701   6.097   0.475   3.959
   86MYC    C6215702   6.251   0.408   3.837
   86MYC   7H1115703   6.238   0.300   3.851
   86MYC   8H1115704   6.360   0.416   3.822
   86MYC    C6115705   6.183   0.459   3.709
   86MYC   5H1115706   6.228   0.553   3.674
   86MYC   6H1115707   6.078   0.484   3.728
   86MYC    C6015708   6.201   0.358   3.597
   86MYC   4H1115709   6.157   0.259   3.608
   86MYC    C5815710   6.190   0.422   3.461
   86MYC   1H1115711   6.175   0.529   3.457
   86MYC    C5915712   6.323   0.369   3.508
   86MYC   2H1115713   6.359   0.281   3.455
   86MYC   3H1115714   6.398   0.444   3.533
   86MYC    C5715715   6.128   0.353   3.340
   86MYC   9H1015716   6.020   0.373   3.334
   86MYC   0H1115717   6.135   0.244   3.340
   86MYC    C5615718   6.184   0.402   3.205
   86MYC   7H1015719   6.280   0.352   3.184
   86MYC   8H1015720   6.205   0.510   3.210
   86MYC    C5515721   6.091   0.389   3.083
   86MYC   5H1015722   6.006   0.457   3.091
   86MYC   6H1015723   6.047   0.290   3.067
   86MYC    C5415724   6.174   0.436   2.963
   86MYC   3H1015725   6.255   0.364   2.949
   86MYC   4H1015726   6.224   0.533   2.980
   86MYC    C5315727   6.098   0.440   2.829
   86MYC   1H1015728   6.018   0.514   2.826
   86MYC   2H1015729   6.053   0.341   2.814
   86MYC    C5215730   6.191   0.460   2.708
   86MYC    H9915731   6.250   0.368   2.695
   86MYC   0H1015732   6.258   0.544   2.732
   86MYC    C5115733   6.117   0.495   2.579
   86MYC    H9715734   6.080   0.599   2.578
   86MYC    H9815735   6.031   0.426   2.575
   86MYC    C5015736   6.209   0.464   2.460
   86MYC    H9515737   6.267   0.372   2.468
   86MYC    H9615738   6.285   0.543   2.453
   86MYC    C4915739   6.124   0.462   2.332
   86MYC    H9315740   6.104   0.568   2.314
   86MYC    H9415741   6.030   0.407   2.345
   86MYC    C4815742   6.214   0.409   2.219
   86MYC    H9115743   6.238   0.302   2.226
   86MYC    H9215744   6.313   0.457   2.226
   86MYC    C4715745   6.147   0.442   2.085
   86MYC    H8915746   6.155   0.549   2.061
   86MYC    H9015747   6.041   0.414   2.086
   86MYC    C4615748   6.222   0.362   1.977
   86MYC    H8715749   6.202   0.256   1.998
   86MYC    H8815750   6.326   0.395   1.970
   86MYC    C4515751   6.162   0.403   1.841
   86MYC    H8515752   6.183   0.509   1.821
   86MYC    H8615753   6.054   0.387   1.848
   86MYC    C4415754   6.210   0.310   1.729
   86MYC    H8315755   6.154   0.334   1.638
   86MYC    H8415756   6.186   0.206   1.752
   86MYC    C1815757   6.360   0.315   1.705
   86MYC    H3115758   6.412   0.397   1.754
   86MYC    C1715759   6.441   0.187   1.699
   86MYC    H3015760   6.393   0.090   1.710
   86MYC    C1915761   6.412   0.264   1.573
   86MYC    H3215762   6.352   0.216   1.496
   86MYC    H3315763   6.500   0.311   1.529
   86MYC    C1615764   6.585   0.180   1.747
   86MYC    H2815765   6.625   0.281   1.766
   86MYC    H2915766   6.649   0.131   1.672
   86MYC    C1515767   6.591   0.115   1.886
   86MYC    H2615768   6.698   0.099   1.903
   86MYC    H2715769   6.538   0.019   1.889
   86MYC    C1415770   6.545   0.205   2.001
   86MYC    H2415771   6.435   0.203   2.012
   86MYC    H2515772   6.562   0.309   1.970
   86MYC    C1315773   6.616   0.185   2.136
   86MYC    H2215774   6.721   0.191   2.106
   86MYC    H2315775   6.596   0.082   2.169
   86MYC    C1215776   6.592   0.288   2.248
   86MYC    H2015777   6.485   0.310   2.260
   86MYC    H2115778   6.632   0.384   2.213
   86MYC    C1115779   6.644   0.242   2.385
   86MYC    H1815780   6.656   0.329   2.451
   86MYC    H1915781   6.746   0.207   2.367
   86MYC    C1015782   6.563   0.134   2.459
   86MYC    H1615783   6.631   0.049   2.472
   86MYC    H1715784   6.489   0.096   2.388
   86MYC     C915785   6.497   0.186   2.588
   86MYC    H1415786   6.406   0.130   2.615
   86MYC    H1515787   6.461   0.289   2.582
   86MYC     C815788   6.585   0.177   2.714
   86MYC    H1215789   6.688   0.201   2.683
   86MYC    H1315790   6.583   0.075   2.756
   86MYC     C715791   6.534   0.277   2.818
   86MYC    H1015792   6.437   0.243   2.856
   86MYC    H1115793   6.523   0.373   2.766
   86MYC     C615794   6.643   0.287   2.926
   86MYC     H815795   6.727   0.352   2.897
   86MYC     H915796   6.683   0.187   2.948
   86MYC     C515797   6.581   0.341   3.055
   86MYC     H615798   6.503   0.276   3.098
   86MYC     H715799   6.517   0.423   3.021
   86MYC     C415800   6.680   0.394   3.160
   86MYC     H415801   6.624   0.458   3.230
   86MYC     H515802   6.761   0.452   3.114
   86MYC     C215803   6.737   0.284   3.250
   86MYC     H215804   6.710   0.314   3.352
   86MYC     O315805   6.675   0.158   3.229
   86MYC     H315806   6.704   0.132   3.140
   86MYC     C115807   6.891   0.282   3.244
   86MYC     H115808   6.917   0.388   3.254
   86MYC    C8115809   6.945   0.232   3.110
   86MYC    O8215810   6.911   0.131   3.051
   86MYC    O8315811   7.016   0.330   3.049
   86MYC   6H1515812   7.022   0.297   2.958
   86MYC    C2015813   6.963   0.201   3.354
   86MYC    H3415814   6.973   0.093   3.335
   86MYC    H3515815   7.068   0.232   3.354
   86MYC    C2115816   6.902   0.221   3.493
   86MYC    H3615817   6.878   0.328   3.505
   86MYC    H3715818   6.810   0.162   3.498
   86MYC    C2215819   7.001   0.181   3.603
   86MYC    H3815820   7.037   0.078   3.586
   86MYC    H3915821   7.088   0.247   3.599
   86MYC    C2315822   6.925   0.185   3.737
   86MYC    H4015823   6.905   0.292   3.752
   86MYC    H4115824   6.829   0.133   3.728
   86MYC    C2415825   7.011   0.129   3.852
   86MYC    H4215826   7.054   0.031   3.827
   86MYC    H4315827   7.093   0.202   3.864
   86MYC    C2515828   6.932   0.119   3.983
   86MYC    H4415829   6.873   0.210   4.000
   86MYC    H4515830   6.857   0.040   3.981
   86MYC    C2615831   7.024   0.097   4.105
   86MYC    H4615832   7.073  -0.001   4.107
   86MYC    H4715833   7.103   0.173   4.110
   86MYC    C2715834   6.950   0.109   4.239
   86MYC    H4815835   6.895   0.203   4.248
   86MYC    H4915836   6.872   0.032   4.230
   86MYC    C2815837   7.040   0.074   4.359
   86MYC    H5015838   7.076  -0.029   4.361
   86MYC    H5115839   7.124   0.143   4.349
   86MYC    C2915840   6.956   0.102   4.485
   86MYC    H5215841   6.958   0.211   4.489
   86MYC    H5315842   6.854   0.064   4.467
   86MYC    C3015843   7.009   0.047   4.619
   86MYC    H5415844   7.011  -0.062   4.611
   86MYC    H5515845   7.114   0.077   4.633
   86MYC    C3115846   6.930   0.090   4.743
   86MYC    H5615847   6.925   0.199   4.751
   86MYC    H5715848   6.827   0.057   4.724
   86MYC    C3215849   6.970   0.037   4.882
   86MYC    H5815850   6.960  -0.072   4.878
   86MYC    H5915851   7.075   0.062   4.902
   86MYC    C3315852   6.886   0.101   4.993
   86MYC    H6015853   6.903   0.209   5.005
   86MYC    H6115854   6.779   0.078   4.978
   86MYC    C3415855   6.933   0.038   5.126
   86MYC    H6215856   6.904  -0.068   5.122
   86MYC    H6315857   7.041   0.040   5.143
   86MYC    C3515858   6.853   0.103   5.241
   86MYC    H6415859   6.848   0.209   5.213
   86MYC    H6515860   6.751   0.065   5.234
   86MYC    C3615861   6.911   0.080   5.381
   86MYC    H6615862   6.907  -0.029   5.394
   86MYC    H6715863   7.018   0.105   5.377
   86MYC    C3715864   6.837   0.144   5.500
   86MYC    H6815865   6.848   0.253   5.497
   86MYC    H6915866   6.732   0.116   5.486
   86MYC    C3815867   6.884   0.093   5.637
   86MYC    H7015868   6.877  -0.017   5.632
   86MYC    H7115869   6.992   0.107   5.646
   86MYC    C3915870   6.816   0.160   5.758
   86MYC    H7215871   6.820   0.270   5.759
   86MYC    H7315872   6.707   0.143   5.755
   86MYC    C4015873   6.868   0.102   5.890
   86MYC    H7415874   6.868  -0.008   5.883
   86MYC    H7515875   6.971   0.139   5.890
   86MYC    C4115876   6.796   0.159   6.014
   86MYC    H7615877   6.844   0.253   6.040
   86MYC    H7715878   6.693   0.181   5.981
   86MYC    C4215879   6.789   0.063   6.134
   86MYC    H7815880   6.713  -0.015   6.124
   86MYC    H7915881   6.890   0.025   6.156
   86MYC    C4315882   6.742   0.142   6.257
   86MYC    H8015883   6.732   0.069   6.338
   86MYC    H8115884   6.640   0.179   6.239
   86MYC    H8215885   6.805   0.224   6.293
   87MYC   5H1515886   0.040   0.836   6.200
   87MYC    C8015887   0.034   0.911   6.120
   87MYC   3H1515888  -0.030   0.993   6.154
   87MYC   4H1515889   0.135   0.950   6.102
   87MYC    C7915890  -0.020   0.858   5.986
   87MYC   1H1515891  -0.125   0.831   6.001
   87MYC   2H1515892   0.022   0.762   5.953
   87MYC    C7815893  -0.004   0.953   5.866
   87MYC   9H1415894   0.103   0.971   5.853
   87MYC   0H1515895  -0.047   1.051   5.894
   87MYC    C7715896  -0.063   0.905   5.732
   87MYC   7H1415897  -0.168   0.876   5.746
   87MYC   8H1415898  -0.014   0.812   5.701
   87MYC    C7615899  -0.073   1.009   5.619
   87MYC   5H1415900   0.030   1.033   5.589
   87MYC   6H1415901  -0.108   1.104   5.661
   87MYC    C7515902  -0.149   0.955   5.498
   87MYC   3H1415903  -0.257   0.974   5.496
   87MYC   4H1415904  -0.146   0.845   5.495
   87MYC    C7415905  -0.091   1.009   5.366
   87MYC   1H1415906   0.018   0.998   5.360
   87MYC   2H1415907  -0.119   1.114   5.353
   87MYC    C7315908  -0.150   0.938   5.243
   87MYC   9H1315909  -0.260   0.933   5.235
   87MYC   0H1415910  -0.115   0.834   5.243
   87MYC    C7215911  -0.122   1.014   5.112
   87MYC   7H1315912  -0.029   1.071   5.122
   87MYC   8H1315913  -0.197   1.087   5.080
   87MYC    C7115914  -0.108   0.917   4.993
   87MYC   5H1315915  -0.209   0.891   4.959
   87MYC   6H1315916  -0.061   0.827   5.035
   87MYC    C7015917  -0.010   0.958   4.882
   87MYC   3H1315918   0.093   0.950   4.919
   87MYC   4H1315919  -0.029   1.062   4.852
   87MYC    C6915920  -0.040   0.874   4.757
   87MYC   1H1315921  -0.139   0.904   4.721
   87MYC   2H1315922  -0.053   0.767   4.776
   87MYC    C6815923   0.057   0.900   4.641
   87MYC   9H1215924   0.153   0.861   4.675
   87MYC   0H1315925   0.066   1.008   4.626
   87MYC    C6715926   0.014   0.832   4.510
   87MYC   7H1215927  -0.073   0.883   4.467
   87MYC   8H1215928  -0.019   0.731   4.539
   87MYC    C6615929   0.128   0.821   4.407
   87MYC   5H1215930   0.203   0.751   4.443
   87MYC   6H1215931   0.179   0.918   4.401
   87MYC    C6515932   0.071   0.782   4.269
   87MYC   3H1215933  -0.026   0.831   4.256
   87MYC   4H1215934   0.048   0.675   4.273
   87MYC    C6415935   0.149   0.817   4.141
   87MYC   1H1215936   0.238   0.753   4.134
   87MYC   2H1215937   0.187   0.920   4.150
   87MYC    C6315938   0.074   0.794   4.009
   87MYC   9H1115939  -0.018   0.854   4.002
   87MYC   0H1215940   0.040   0.690   4.015
   87MYC    C6215941   0.165   0.812   3.887
   87MYC   7H1115942   0.242   0.735   3.897
   87MYC   8H1115943   0.220   0.906   3.900
   87MYC    C6115944   0.088   0.804   3.753
   87MYC   5H1115945   0.008   0.879   3.751
   87MYC   6H1115946   0.039   0.706   3.752
   87MYC    C6015947   0.176   0.810   3.629
   87MYC   4H1115948   0.249   0.729   3.631
   87MYC    C5815949   0.108   0.858   3.504
   87MYC   1H1115950   0.006   0.895   3.505
   87MYC    C5915951   0.220   0.939   3.564
   87MYC   2H1115952   0.318   0.946   3.518
   87MYC   3H1115953   0.188   1.028   3.617
   87MYC    C5715954   0.129   0.768   3.383
   87MYC   9H1015955   0.067   0.679   3.402
   87MYC   0H1115956   0.234   0.739   3.370
   87MYC    C5615957   0.072   0.840   3.260
   87MYC   7H1015958   0.113   0.942   3.262
   87MYC   8H1015959  -0.037   0.851   3.270
   87MYC    C5515960   0.109   0.767   3.130
   87MYC   5H1015961   0.071   0.665   3.142
   87MYC   6H1015962   0.218   0.756   3.118
   87MYC    C5415963   0.061   0.830   2.998
   87MYC   3H1015964   0.111   0.928   2.998
   87MYC   4H1015965  -0.047   0.848   3.000
   87MYC    C5315966   0.107   0.753   2.873
   87MYC   1H1015967   0.049   0.660   2.867
   87MYC   2H1015968   0.214   0.732   2.878
   87MYC    C5215969   0.086   0.842   2.749
   87MYC    H9915970   0.153   0.927   2.764
   87MYC   0H1015971  -0.016   0.881   2.742
   87MYC    C5115972   0.129   0.772   2.619
   87MYC    H9715973   0.060   0.689   2.601
   87MYC    H9815974   0.227   0.724   2.634
   87MYC    C5015975   0.131   0.867   2.498
   87MYC    H9515976   0.177   0.964   2.520
   87MYC    H9615977   0.025   0.890   2.484
   87MYC    C4915978   0.200   0.798   2.379
   87MYC    H9315979   0.178   0.691   2.389
   87MYC    H9415980   0.307   0.812   2.396
   87MYC    C4815981   0.153   0.853   2.243
   87MYC    H9115982   0.223   0.934   2.217
   87MYC    H9215983   0.054   0.901   2.251
   87MYC    C4715984   0.166   0.752   2.128
   87MYC    H8915985   0.121   0.656   2.152
   87MYC    H9015986   0.272   0.729   2.109
   87MYC    C4615987   0.093   0.798   2.000
   87MYC    H8715988   0.145   0.884   1.956
   87MYC    H8815989  -0.004   0.840   2.029
   87MYC    C4515990   0.072   0.681   1.904
   87MYC    H8515991   0.016   0.604   1.960
   87MYC    H8615992   0.168   0.639   1.873
   87MYC    C4415993  -0.001   0.714   1.773
   87MYC    H8315994  -0.012   0.616   1.725
   87MYC    H8415995   0.061   0.783   1.714
   87MYC    C1815996  -0.134   0.787   1.790
   87MYC    H3115997  -0.205   0.727   1.847
   87MYC    C1715998  -0.141   0.937   1.796
   87MYC    H3015999  -0.040   0.977   1.794
   87MYC    C1916000  -0.192   0.864   1.674
   87MYC    H3216001  -0.137   0.884   1.582
   87MYC    H3316002  -0.299   0.862   1.657
   87MYC    C1616003  -0.240   1.013   1.883
   87MYC    H2816004  -0.280   0.945   1.959
   87MYC    H2916005  -0.327   1.049   1.826
   87MYC    C1516006  -0.183   1.140   1.947
   87MYC    H2616007  -0.267   1.186   2.000
   87MYC    H2716008  -0.158   1.219   1.876
   87MYC    C1416009  -0.067   1.117   2.045
   87MYC    H2416010   0.023   1.079   1.995
   87MYC    H2516011  -0.102   1.040   2.116
   87MYC    C1316012  -0.035   1.246   2.123
   87MYC    H2216013  -0.130   1.290   2.155
   87MYC    H2316014   0.015   1.315   2.055
   87MYC    C1216015   0.047   1.217   2.250
   87MYC    H2016016   0.146   1.178   2.223
   87MYC    H2116017  -0.012   1.157   2.320
   87MYC    C1116018   0.080   1.346   2.329
   87MYC    H1816019  -0.009   1.408   2.318
   87MYC    H1916020   0.169   1.386   2.279
   87MYC    C1016021   0.104   1.343   2.481
   87MYC    H1616022   0.160   1.433   2.508
   87MYC    H1716023   0.178   1.268   2.513
   87MYC     C916024  -0.020   1.352   2.571
   87MYC    H1416025  -0.107   1.389   2.517
   87MYC    H1516026  -0.003   1.427   2.649
   87MYC     C816027  -0.059   1.217   2.633
   87MYC    H1216028   0.032   1.157   2.646
   87MYC    H1316029  -0.127   1.166   2.563
   87MYC     C716030  -0.146   1.236   2.758
   87MYC    H1016031  -0.241   1.282   2.725
   87MYC    H1116032  -0.096   1.304   2.828
   87MYC     C616033  -0.192   1.109   2.831
   87MYC     H816034  -0.103   1.064   2.876
   87MYC     H916035  -0.220   1.034   2.756
   87MYC     C516036  -0.307   1.141   2.928
   87MYC     H616037  -0.327   1.057   2.996
   87MYC     H716038  -0.399   1.161   2.872
   87MYC     C416039  -0.299   1.262   3.024
   87MYC     H416040  -0.396   1.273   3.075
   87MYC     H516041  -0.280   1.346   2.956
   87MYC     C216042  -0.207   1.255   3.146
   87MYC     H216043  -0.266   1.209   3.227
   87MYC     O316044  -0.091   1.178   3.119
   87MYC     H316045  -0.037   1.224   3.052
   87MYC     C116046  -0.177   1.397   3.196
   87MYC     H116047  -0.271   1.445   3.226
   87MYC    C8116048  -0.115   1.490   3.092
   87MYC    O8216049  -0.161   1.597   3.058
   87MYC    O8316050  -0.005   1.437   3.034
   87MYC   6H1516051   0.028   1.507   2.976
   87MYC    C2016052  -0.079   1.392   3.315
   87MYC    H3416053  -0.001   1.316   3.303
   87MYC    H3516054  -0.022   1.485   3.328
   87MYC    C2116055  -0.138   1.370   3.455
   87MYC    H3616056  -0.215   1.443   3.484
   87MYC    H3716057  -0.193   1.275   3.446
   87MYC    C2216058  -0.026   1.353   3.560
   87MYC    H3816059   0.024   1.261   3.528
   87MYC    H3916060   0.059   1.422   3.553
   87MYC    C2316061  -0.074   1.333   3.705
   87MYC    H4016062  -0.101   1.430   3.748
   87MYC    H4116063  -0.160   1.264   3.701
   87MYC    C2416064   0.034   1.274   3.797
   87MYC    H4216065   0.072   1.184   3.747
   87MYC    H4316066   0.121   1.340   3.803
   87MYC    C2516067  -0.013   1.233   3.937
   87MYC    H4416068  -0.115   1.196   3.923
   87MYC    H4516069   0.038   1.141   3.968
   87MYC    C2616070   0.009   1.336   4.050
   87MYC    H4616071   0.112   1.371   4.041
   87MYC    H4716072  -0.054   1.424   4.034
   87MYC    C2716073  -0.030   1.278   4.187
   87MYC    H4816074  -0.138   1.291   4.203
   87MYC    H4916075  -0.031   1.168   4.184
   87MYC    C2816076   0.049   1.333   4.306
   87MYC    H5016077   0.149   1.289   4.312
   87MYC    H5116078   0.061   1.441   4.286
   87MYC    C2916079  -0.021   1.320   4.442
   87MYC    H5216080  -0.114   1.379   4.444
   87MYC    H5316081  -0.053   1.216   4.455
   87MYC    C3016082   0.069   1.360   4.560
   87MYC    H5416083   0.137   1.275   4.568
   87MYC    H5516084   0.128   1.452   4.547
   87MYC    C3116085  -0.014   1.375   4.689
   87MYC    H5616086  -0.081   1.462   4.681
   87MYC    H5716087  -0.068   1.281   4.705
   87MYC    C3216088   0.073   1.408   4.811
   87MYC    H5816089   0.140   1.322   4.818
   87MYC    H5916090   0.125   1.503   4.794
   87MYC    C3316091  -0.007   1.418   4.943
   87MYC    H6016092  -0.078   1.500   4.925
   87MYC    H6116093  -0.062   1.326   4.964
   87MYC    C3416094   0.082   1.455   5.063
   87MYC    H6216095   0.173   1.395   5.054
   87MYC    H6316096   0.114   1.560   5.053
   87MYC    C3516097   0.021   1.437   5.203
   87MYC    H6416098  -0.071   1.495   5.207
   87MYC    H6516099  -0.013   1.333   5.213
   87MYC    C3616100   0.119   1.470   5.316
   87MYC    H6616101   0.219   1.436   5.284
   87MYC    H6716102   0.133   1.578   5.332
   87MYC    C3716103   0.093   1.396   5.448
   87MYC    H6816104  -0.010   1.405   5.484
   87MYC    H6916105   0.105   1.289   5.428
   87MYC    C3816106   0.187   1.456   5.553
   87MYC    H7016107   0.294   1.436   5.536
   87MYC    H7116108   0.183   1.566   5.550
   87MYC    C3916109   0.141   1.426   5.696
   87MYC    H7216110   0.036   1.456   5.707
   87MYC    H7316111   0.140   1.317   5.708
   87MYC    C4016112   0.233   1.503   5.792
   87MYC    H7416113   0.337   1.469   5.780
   87MYC    H7516114   0.228   1.610   5.771
   87MYC    C4116115   0.201   1.477   5.941
   87MYC    H7616116   0.099   1.512   5.957
   87MYC    H7716117   0.205   1.374   5.977
   87MYC    C4216118   0.299   1.554   6.031
   87MYC    H7816119   0.402   1.521   6.013
   87MYC    H7916120   0.296   1.662   6.008
   87MYC    C4316121   0.266   1.535   6.180
   87MYC    H8016122   0.262   1.427   6.201
   87MYC    H8116123   0.169   1.577   6.207
   87MYC    H8216124   0.343   1.583   6.243
   88MYC   5H1516125   6.243   2.014   6.225
   88MYC    C8016126   6.310   2.017   6.138
   88MYC   3H1516127   6.329   2.122   6.114
   88MYC   4H1516128   6.400   1.966   6.175
   88MYC    C7916129   6.250   1.939   6.020
   88MYC   1H1516130   6.152   1.983   6.001
   88MYC   2H1516131   6.225   1.833   6.029
   88MYC    C7816132   6.343   1.942   5.897
   88MYC   9H1416133   6.435   1.893   5.929
   88MYC   0H1516134   6.379   2.044   5.877
   88MYC    C7716135   6.289   1.878   5.768
   88MYC   7H1416136   6.182   1.902   5.766
   88MYC   8H1416137   6.302   1.769   5.771
   88MYC    C7616138   6.366   1.929   5.645
   88MYC   5H1416139   6.470   1.895   5.644
   88MYC   6H1416140   6.369   2.039   5.644
   88MYC    C7516141   6.297   1.880   5.517
   88MYC   3H1416142   6.192   1.911   5.519
   88MYC   4H1416143   6.292   1.770   5.512
   88MYC    C7416144   6.370   1.928   5.391
   88MYC   1H1416145   6.475   1.900   5.409
   88MYC   2H1416146   6.371   2.038   5.394
   88MYC    C7316147   6.309   1.878   5.259
   88MYC   9H1316148   6.222   1.938   5.230
   88MYC   0H1416149   6.272   1.775   5.267
   88MYC    C7216150   6.410   1.887   5.143
   88MYC   7H1316151   6.507   1.836   5.150
   88MYC   8H1316152   6.442   1.990   5.125
   88MYC    C7116153   6.341   1.840   5.014
   88MYC   5H1316154   6.249   1.898   4.999
   88MYC   6H1316155   6.309   1.736   5.024
   88MYC    C7016156   6.419   1.858   4.882
   88MYC   3H1316157   6.506   1.792   4.879
   88MYC   4H1316158   6.451   1.963   4.884
   88MYC    C6916159   6.327   1.843   4.760
   88MYC   1H1316160   6.258   1.927   4.758
   88MYC   2H1316161   6.252   1.763   4.771
   88MYC    C6816162   6.408   1.819   4.631
   88MYC   9H1216163   6.426   1.711   4.621
   88MYC   0H1316164   6.505   1.870   4.624
   88MYC    C6716165   6.331   1.867   4.507
   88MYC   7H1216166   6.332   1.977   4.497
   88MYC   8H1216167   6.226   1.840   4.520
   88MYC    C6616168   6.390   1.815   4.375
   88MYC   5H1216169   6.376   1.707   4.362
   88MYC   6H1216170   6.497   1.838   4.371
   88MYC    C6516171   6.325   1.887   4.256
   88MYC   3H1216172   6.350   1.994   4.263
   88MYC   4H1216173   6.216   1.877   4.266
   88MYC    C6416174   6.360   1.835   4.116
   88MYC   1H1216175   6.312   1.737   4.111
   88MYC   2H1216176   6.469   1.828   4.106
   88MYC    C6316177   6.304   1.920   4.000
   88MYC   9H1116178   6.363   2.012   3.999
   88MYC   0H1216179   6.201   1.951   4.023
   88MYC    C6216180   6.325   1.849   3.866
   88MYC   7H1116181   6.269   1.755   3.856
   88MYC   8H1116182   6.431   1.829   3.846
   88MYC    C6116183   6.267   1.937   3.754
   88MYC   5H1116184   6.319   2.033   3.743
   88MYC   6H1116185   6.173   1.965   3.803
   88MYC    C6016186   6.264   1.865   3.619
   88MYC   4H1116187   6.189   1.787   3.622
   88MYC    C5816188   6.255   1.946   3.493
   88MYC   1H1116189   6.270   2.049   3.524
   88MYC    C5916190   6.375   1.858   3.517
   88MYC   2H1116191   6.381   1.762   3.467
   88MYC   3H1116192   6.473   1.900   3.539
   88MYC    C5716193   6.156   1.916   3.381
   88MYC   9H1016194   6.063   1.961   3.415
   88MYC   0H1116195   6.146   1.808   3.365
   88MYC    C5616196   6.200   1.978   3.247
   88MYC   7H1016197   6.306   1.955   3.231
   88MYC   8H1016198   6.199   2.087   3.258
   88MYC    C5516199   6.116   1.927   3.128
   88MYC   5H1016200   6.014   1.966   3.143
   88MYC   6H1016201   6.106   1.819   3.137
   88MYC    C5416202   6.173   1.981   2.996
   88MYC   3H1016203   6.276   1.943   2.994
   88MYC   4H1016204   6.193   2.088   3.008
   88MYC    C5316205   6.094   1.939   2.870
   88MYC   1H1016206   6.015   2.013   2.852
   88MYC   2H1016207   6.041   1.846   2.895
   88MYC    C5216208   6.194   1.930   2.753
   88MYC    H9916209   6.279   1.865   2.778
   88MYC   0H1016210   6.228   2.032   2.735
   88MYC    C5116211   6.138   1.882   2.618
   88MYC    H9716212   6.067   1.956   2.579
   88MYC    H9816213   6.077   1.792   2.630
   88MYC    C5016214   6.248   1.856   2.514
   88MYC    H9516215   6.345   1.822   2.553
   88MYC    H9616216   6.264   1.952   2.464
   88MYC    C4916217   6.196   1.750   2.416
   88MYC    H9316218   6.096   1.780   2.381
   88MYC    H9416219   6.177   1.653   2.463
   88MYC    C4816220   6.296   1.731   2.301
   88MYC    H9116221   6.392   1.699   2.344
   88MYC    H9216222   6.322   1.828   2.256
   88MYC    C4716223   6.251   1.624   2.200
   88MYC    H8916224   6.142   1.628   2.197
   88MYC    H9016225   6.268   1.520   2.229
   88MYC    C4616226   6.321   1.652   2.065
   88MYC    H8716227   6.430   1.642   2.067
   88MYC    H8816228   6.298   1.755   2.037
   88MYC    C4516229   6.264   1.557   1.958
   88MYC    H8516230   6.160   1.570   1.927
   88MYC    H8616231   6.278   1.455   1.994
   88MYC    C4416232   6.348   1.564   1.830
   88MYC    H8316233   6.298   1.499   1.756
   88MYC    H8416234   6.443   1.512   1.845
   88MYC    C1816235   6.359   1.706   1.776
   88MYC    H3116236   6.274   1.773   1.792
   88MYC    C1716237   6.491   1.778   1.773
   88MYC    H3016238   6.581   1.725   1.805
   88MYC    C1916239   6.429   1.728   1.645
   88MYC    H3216240   6.480   1.642   1.602
   88MYC    H3316241   6.387   1.791   1.566
   88MYC    C1616242   6.507   1.928   1.793
   88MYC    H2816243   6.419   1.979   1.832
   88MYC    H2916244   6.523   1.987   1.701
   88MYC    C1516245   6.623   1.971   1.885
   88MYC    H2616246   6.612   2.080   1.886
   88MYC    H2716247   6.723   1.943   1.850
   88MYC    C1416248   6.602   1.925   2.030
   88MYC    H2416249   6.634   1.819   2.031
   88MYC    H2516250   6.499   1.913   2.065
   88MYC    C1316251   6.704   1.995   2.121
   88MYC    H2216252   6.687   2.103   2.118
   88MYC    H2316253   6.804   1.982   2.079
   88MYC    C1216254   6.693   1.944   2.266
   88MYC    H2016255   6.705   1.835   2.271
   88MYC    H2116256   6.593   1.962   2.307
   88MYC    C1116257   6.798   2.013   2.354
   88MYC    H1816258   6.812   2.119   2.333
   88MYC    H1916259   6.895   1.962   2.342
   88MYC    C1016260   6.770   1.989   2.504
   88MYC    H1616261   6.866   1.975   2.555
   88MYC    H1716262   6.714   1.895   2.512
   88MYC     C916263   6.680   2.100   2.562
   88MYC    H1416264   6.577   2.101   2.525
   88MYC    H1516265   6.724   2.199   2.545
   88MYC     C816266   6.668   2.075   2.713
   88MYC    H1216267   6.769   2.074   2.755
   88MYC    H1316268   6.622   1.975   2.720
   88MYC     C716269   6.573   2.175   2.781
   88MYC    H1016270   6.471   2.137   2.769
   88MYC    H1116271   6.569   2.272   2.730
   88MYC     C616272   6.606   2.188   2.931
   88MYC     H816273   6.697   2.246   2.945
   88MYC     H916274   6.619   2.087   2.971
   88MYC     C516275   6.497   2.277   2.994
   88MYC     H616276   6.406   2.215   2.995
   88MYC     H716277   6.481   2.364   2.929
   88MYC     C416278   6.528   2.328   3.136
   88MYC     H416279   6.434   2.355   3.184
   88MYC     H516280   6.591   2.417   3.132
   88MYC     C216281   6.603   2.234   3.232
   88MYC     H216282   6.562   2.134   3.215
   88MYC     O316283   6.742   2.236   3.201
   88MYC     H316284   6.759   2.282   3.117
   88MYC     C116285   6.586   2.270   3.381
   88MYC     H116286   6.480   2.272   3.408
   88MYC    C8116287   6.628   2.411   3.422
   88MYC    O8216288   6.546   2.498   3.444
   88MYC    O8316289   6.756   2.447   3.399
   88MYC   6H1516290   6.759   2.543   3.386
   88MYC    C2016291   6.654   2.160   3.464
   88MYC    H3416292   6.609   2.062   3.445
   88MYC    H3516293   6.756   2.141   3.428
   88MYC    C2116294   6.654   2.180   3.617
   88MYC    H3616295   6.701   2.274   3.646
   88MYC    H3716296   6.549   2.194   3.645
   88MYC    C2216297   6.732   2.072   3.694
   88MYC    H3816298   6.682   1.975   3.678
   88MYC    H3916299   6.834   2.067   3.655
   88MYC    C2316300   6.743   2.108   3.843
   88MYC    H4016301   6.790   2.206   3.860
   88MYC    H4116302   6.640   2.116   3.880
   88MYC    C2416303   6.810   1.999   3.928
   88MYC    H4216304   6.792   1.902   3.880
   88MYC    H4316305   6.919   2.015   3.928
   88MYC    C2516306   6.744   1.993   4.067
   88MYC    H4416307   6.721   2.094   4.101
   88MYC    H4516308   6.646   1.946   4.054
   88MYC    C2616309   6.822   1.924   4.180
   88MYC    H4616310   6.813   1.818   4.150
   88MYC    H4716311   6.926   1.957   4.174
   88MYC    C2716312   6.754   1.938   4.318
   88MYC    H4816313   6.651   1.971   4.301
   88MYC    H4916314   6.751   1.839   4.364
   88MYC    C2816315   6.827   2.043   4.403
   88MYC    H5016316   6.928   2.005   4.421
   88MYC    H5116317   6.847   2.137   4.351
   88MYC    C2916318   6.751   2.053   4.537
   88MYC    H5216319   6.648   2.089   4.522
   88MYC    H5316320   6.731   1.951   4.573
   88MYC    C3016321   6.832   2.137   4.636
   88MYC    H5416322   6.932   2.093   4.648
   88MYC    H5516323   6.839   2.241   4.601
   88MYC    C3116324   6.754   2.148   4.768
   88MYC    H5616325   6.709   2.248   4.776
   88MYC    H5716326   6.668   2.080   4.765
   88MYC    C3216327   6.843   2.125   4.892
   88MYC    H5816328   6.889   2.026   4.885
   88MYC    H5916329   6.924   2.199   4.883
   88MYC    C3316330   6.746   2.129   5.011
   88MYC    H6016331   6.696   2.226   5.010
   88MYC    H6116332   6.670   2.051   4.996
   88MYC    C3416333   6.815   2.099   5.146
   88MYC    H6216334   6.871   2.005   5.146
   88MYC    H6316335   6.878   2.186   5.169
   88MYC    C3516336   6.712   2.088   5.260
   88MYC    H6416337   6.629   2.158   5.249
   88MYC    H6516338   6.685   1.982   5.265
   88MYC    C3616339   6.779   2.124   5.393
   88MYC    H6616340   6.856   2.052   5.425
   88MYC    H6716341   6.823   2.225   5.391
   88MYC    C3716342   6.677   2.138   5.507
   88MYC    H6816343   6.602   2.204   5.462
   88MYC    H6916344   6.634   2.041   5.532
   88MYC    C3816345   6.739   2.212   5.627
   88MYC    H7016346   6.845   2.184   5.630
   88MYC    H7116347   6.751   2.319   5.607
   88MYC    C3916348   6.659   2.194   5.756
   88MYC    H7216349   6.565   2.251   5.753
   88MYC    H7316350   6.636   2.088   5.774
   88MYC    C4016351   6.738   2.269   5.865
   88MYC    H7416352   6.842   2.237   5.880
   88MYC    H7516353   6.734   2.376   5.844
   88MYC    C4116354   6.652   2.252   5.991
   88MYC    H7616355   6.557   2.306   5.981
   88MYC    H7716356   6.644   2.143   6.000
   88MYC    C4216357   6.728   2.308   6.112
   88MYC    H7816358   6.822   2.251   6.119
   88MYC    H7916359   6.762   2.412   6.100
   88MYC    C4316360   6.650   2.289   6.243
   88MYC    H8016361   6.718   2.293   6.330
   88MYC    H8116362   6.603   2.189   6.239
   88MYC    H8216363   6.572   2.365   6.254
   89MYC   5H1516364   6.221   2.353   6.121
   89MYC    C8016365   6.152   2.402   6.052
   89MYC   3H1516366   6.059   2.435   6.102
   89MYC   4H1516367   6.203   2.491   6.013
   89MYC    C7916368   6.125   2.319   5.925
   89MYC   1H1516369   6.046   2.245   5.945
   89MYC   2H1516370   6.218   2.263   5.912
   89MYC    C7816371   6.099   2.396   5.794
   89MYC   9H1416372   6.172   2.477   5.781
   89MYC   0H1516373   6.006   2.453   5.803
   89MYC    C7716374   6.100   2.315   5.664
   89MYC   7H1416375   6.002   2.266   5.655
   89MYC   8H1416376   6.179   2.239   5.663
   89MYC    C7616377   6.135   2.394   5.536
   89MYC   5H1416378   6.220   2.462   5.552
   89MYC   6H1416379   6.044   2.449   5.511
   89MYC    C7516380   6.162   2.304   5.415
   89MYC   3H1416381   6.076   2.238   5.400
   89MYC   4H1416382   6.252   2.242   5.429
   89MYC    C7416383   6.195   2.396   5.296
   89MYC   1H1416384   6.286   2.455   5.313
   89MYC   2H1416385   6.124   2.477   5.277
   89MYC    C7316386   6.194   2.324   5.159
   89MYC   9H1316387   6.100   2.269   5.145
   89MYC   0H1416388   6.265   2.240   5.157
   89MYC    C7216389   6.220   2.416   5.039
   89MYC   7H1316390   6.322   2.456   5.042
   89MYC   8H1316391   6.165   2.510   5.041
   89MYC    C7116392   6.195   2.347   4.903
   89MYC   5H1316393   6.095   2.304   4.891
   89MYC   6H1316394   6.270   2.268   4.883
   89MYC    C7016395   6.224   2.448   4.791
   89MYC   3H1316396   6.326   2.441   4.750
   89MYC   4H1316397   6.215   2.551   4.828
   89MYC    C6916398   6.129   2.435   4.670
   89MYC   1H1316399   6.027   2.473   4.685
   89MYC   2H1316400   6.108   2.330   4.649
   89MYC    C6816401   6.196   2.487   4.542
   89MYC   9H1216402   6.280   2.421   4.517
   89MYC   0H1316403   6.248   2.580   4.567
   89MYC    C6716404   6.094   2.498   4.428
   89MYC   7H1216405   6.030   2.585   4.445
   89MYC   8H1216406   6.027   2.412   4.440
   89MYC    C6616407   6.154   2.494   4.286
   89MYC   5H1216408   6.221   2.409   4.269
   89MYC   6H1216409   6.222   2.579   4.284
   89MYC    C6516410   6.057   2.523   4.171
   89MYC   3H1216411   6.007   2.619   4.189
   89MYC   4H1216412   5.980   2.445   4.162
   89MYC    C6416413   6.127   2.523   4.034
   89MYC   1H1216414   6.194   2.435   4.033
   89MYC   2H1216415   6.178   2.619   4.019
   89MYC    C6316416   6.026   2.521   3.918
   89MYC   9H1116417   5.975   2.618   3.913
   89MYC   0H1216418   5.954   2.440   3.931
   89MYC    C6216419   6.105   2.501   3.787
   89MYC   7H1116420   6.129   2.396   3.769
   89MYC   8H1116421   6.205   2.545   3.801
   89MYC    C6116422   6.035   2.549   3.659
   89MYC   5H1116423   6.001   2.653   3.664
   89MYC   6H1116424   5.944   2.494   3.634
   89MYC    C6016425   6.138   2.531   3.547
   89MYC   4H1116426   6.210   2.453   3.569
   89MYC    C5816427   6.085   2.538   3.406
   89MYC   1H1116428   5.981   2.566   3.394
   89MYC    C5916429   6.186   2.639   3.454
   89MYC   2H1116430   6.288   2.634   3.417
   89MYC   3H1116431   6.151   2.738   3.483
   89MYC    C5716432   6.117   2.432   3.302
   89MYC   9H1016433   6.049   2.346   3.297
   89MYC   0H1116434   6.215   2.387   3.320
   89MYC    C5616435   6.126   2.489   3.159
   89MYC   7H1016436   6.209   2.559   3.142
   89MYC   8H1016437   6.037   2.542   3.126
   89MYC    C5516438   6.129   2.375   3.056
   89MYC   5H1016439   6.060   2.293   3.080
   89MYC   6H1016440   6.233   2.341   3.052
   89MYC    C5416441   6.104   2.429   2.914
   89MYC   3H1016442   6.174   2.512   2.893
   89MYC   4H1016443   5.998   2.454   2.921
   89MYC    C5316444   6.109   2.321   2.805
   89MYC   1H1016445   6.023   2.254   2.822
   89MYC   2H1016446   6.195   2.259   2.830
   89MYC    C5216447   6.119   2.382   2.665
   89MYC    H9916448   6.213   2.439   2.666
   89MYC   0H1016449   6.037   2.453   2.644
   89MYC    C5116450   6.133   2.285   2.547
   89MYC    H9716451   6.063   2.200   2.550
   89MYC    H9816452   6.228   2.230   2.544
   89MYC    C5016453   6.119   2.358   2.412
   89MYC    H9516454   6.212   2.415   2.395
   89MYC    H9616455   6.045   2.438   2.423
   89MYC    C4916456   6.091   2.264   2.294
   89MYC    H9316457   5.996   2.211   2.306
   89MYC    H9416458   6.174   2.195   2.272
   89MYC    C4816459   6.083   2.349   2.166
   89MYC    H9116460   6.185   2.386   2.151
   89MYC    H9216461   6.026   2.442   2.179
   89MYC    C4716462   6.048   2.278   2.034
   89MYC    H8916463   5.940   2.265   2.046
   89MYC    H9016464   6.099   2.182   2.034
   89MYC    C4616465   6.085   2.363   1.911
   89MYC    H8716466   6.193   2.375   1.899
   89MYC    H8816467   6.047   2.465   1.925
   89MYC    C4516468   6.033   2.290   1.786
   89MYC    H8516469   5.925   2.305   1.775
   89MYC    H8616470   6.056   2.184   1.801
   89MYC    C4416471   6.101   2.348   1.661
   89MYC    H8316472   6.064   2.288   1.576
   89MYC    H8416473   6.207   2.322   1.651
   89MYC    C1816474   6.079   2.497   1.639
   89MYC    H3116475   6.003   2.539   1.705
   89MYC    C1716476   6.192   2.595   1.620
   89MYC    H3016477   6.292   2.555   1.629
   89MYC    C1916478   6.104   2.557   1.503
   89MYC    H3216479   6.141   2.493   1.424
   89MYC    H3316480   6.037   2.633   1.465
   89MYC    C1616481   6.190   2.741   1.663
   89MYC    H2816482   6.119   2.746   1.747
   89MYC    H2916483   6.161   2.794   1.572
   89MYC    C1516484   6.317   2.805   1.722
   89MYC    H2616485   6.308   2.912   1.745
   89MYC    H2716486   6.405   2.784   1.660
   89MYC    C1416487   6.354   2.742   1.857
   89MYC    H2416488   6.334   2.634   1.854
   89MYC    H2516489   6.276   2.774   1.927
   89MYC    C1316490   6.494   2.777   1.909
   89MYC    H2216491   6.520   2.882   1.889
   89MYC    H2316492   6.558   2.716   1.845
   89MYC    C1216493   6.519   2.741   2.057
   89MYC    H2016494   6.570   2.643   2.060
   89MYC    H2116495   6.419   2.740   2.100
   89MYC    C1116496   6.606   2.846   2.128
   89MYC    H1816497   6.569   2.949   2.136
   89MYC    H1916498   6.692   2.859   2.061
   89MYC    C1016499   6.664   2.794   2.261
   89MYC    H1616500   6.750   2.849   2.301
   89MYC    H1716501   6.690   2.689   2.246
   89MYC     C916502   6.548   2.782   2.362
   89MYC    H1416503   6.498   2.686   2.344
   89MYC    H1516504   6.474   2.861   2.348
   89MYC     C816505   6.603   2.779   2.506
   89MYC    H1216506   6.646   2.876   2.533
   89MYC    H1316507   6.682   2.702   2.509
   89MYC     C716508   6.496   2.736   2.608
   89MYC    H1016509   6.484   2.627   2.604
   89MYC    H1116510   6.404   2.791   2.581
   89MYC     C616511   6.540   2.782   2.748
   89MYC     H816512   6.544   2.891   2.756
   89MYC     H916513   6.636   2.733   2.766
   89MYC     C516514   6.444   2.727   2.855
   89MYC     H616515   6.498   2.643   2.900
   89MYC     H716516   6.355   2.679   2.813
   89MYC     C416517   6.402   2.827   2.964
   89MYC     H416518   6.292   2.835   2.955
   89MYC     H516519   6.432   2.931   2.946
   89MYC     C216520   6.448   2.800   3.108
   89MYC     H216521   6.370   2.853   3.163
   89MYC     O316522   6.436   2.663   3.141
   89MYC     H316523   6.479   2.655   3.228
   89MYC     C116524   6.587   2.856   3.147
   89MYC     H116525   6.585   2.963   3.123
   89MYC    C8116526   6.694   2.796   3.057
   89MYC    O8216527   6.775   2.709   3.084
   89MYC    O8316528   6.726   2.882   2.958
   89MYC   6H1516529   6.807   2.844   2.921
   89MYC    C2016530   6.634   2.828   3.291
   89MYC    H3416531   6.643   2.720   3.306
   89MYC    H3516532   6.737   2.866   3.292
   89MYC    C2116533   6.562   2.894   3.410
   89MYC    H3616534   6.577   3.002   3.413
   89MYC    H3716535   6.453   2.881   3.411
   89MYC    C2216536   6.603   2.824   3.541
   89MYC    H3816537   6.580   2.718   3.558
   89MYC    H3916538   6.712   2.818   3.542
   89MYC    C2316539   6.557   2.896   3.669
   89MYC    H4016540   6.617   2.986   3.685
   89MYC    H4116541   6.450   2.919   3.670
   89MYC    C2416542   6.570   2.812   3.797
   89MYC    H4216543   6.498   2.729   3.792
   89MYC    H4316544   6.670   2.767   3.801
   89MYC    C2516545   6.527   2.894   3.920
   89MYC    H4416546   6.591   2.983   3.922
   89MYC    H4516547   6.425   2.933   3.924
   89MYC    C2616548   6.548   2.811   4.047
   89MYC    H4616549   6.499   2.713   4.039
   89MYC    H4716550   6.656   2.794   4.063
   89MYC    C2716551   6.492   2.866   4.179
   89MYC    H4816552   6.532   2.965   4.201
   89MYC    H4916553   6.382   2.875   4.178
   89MYC    C2816554   6.527   2.780   4.302
   89MYC    H5016555   6.509   2.674   4.277
   89MYC    H5116556   6.637   2.780   4.300
   89MYC    C2916557   6.467   2.827   4.435
   89MYC    H5216558   6.468   2.936   4.440
   89MYC    H5316559   6.362   2.799   4.452
   89MYC    C3016560   6.539   2.753   4.549
   89MYC    H5416561   6.532   2.644   4.539
   89MYC    H5516562   6.643   2.790   4.543
   89MYC    C3116563   6.476   2.806   4.679
   89MYC    H5616564   6.499   2.913   4.675
   89MYC    H5716565   6.368   2.787   4.673
   89MYC    C3216566   6.535   2.743   4.806
   89MYC    H5816567   6.510   2.636   4.807
   89MYC    H5916568   6.643   2.759   4.794
   89MYC    C3316569   6.487   2.822   4.928
   89MYC    H6016570   6.518   2.928   4.925
   89MYC    H6116571   6.378   2.814   4.933
   89MYC    C3416572   6.551   2.760   5.054
   89MYC    H6216573   6.516   2.657   5.071
   89MYC    H6316574   6.660   2.764   5.043
   89MYC    C3516575   6.517   2.829   5.187
   89MYC    H6416576   6.542   2.935   5.179
   89MYC    H6516577   6.413   2.807   5.215
   89MYC    C3616578   6.599   2.781   5.309
   89MYC    H6616579   6.585   2.672   5.309
   89MYC    H6716580   6.704   2.805   5.294
   89MYC    C3716581   6.540   2.840   5.438
   89MYC    H6816582   6.523   2.945   5.410
   89MYC    H6916583   6.443   2.791   5.454
   89MYC    C3816584   6.629   2.841   5.563
   89MYC    H7016585   6.650   2.734   5.581
   89MYC    H7116586   6.726   2.892   5.550
   89MYC    C3916587   6.559   2.895   5.689
   89MYC    H7216588   6.542   3.003   5.679
   89MYC    H7316589   6.464   2.843   5.704
   89MYC    C4016590   6.653   2.873   5.809
   89MYC    H7416591   6.699   2.774   5.797
   89MYC    H7516592   6.735   2.944   5.793
   89MYC    C4116593   6.580   2.895   5.942
   89MYC    H7616594   6.553   3.000   5.962
   89MYC    H7716595   6.486   2.838   5.949
   89MYC    C4216596   6.680   2.852   6.050
   89MYC    H7816597   6.718   2.751   6.034
   89MYC    H7916598   6.771   2.912   6.038
   89MYC    C4316599   6.626   2.855   6.194
   89MYC    H8016600   6.710   2.876   6.261
   89MYC    H8116601   6.572   2.763   6.217
   89MYC    H8216602   6.556   2.939   6.204
   90MYC   5H1516603   6.296   3.442   6.233
   90MYC    C8016604   6.326   3.395   6.138
   90MYC   3H1516605   6.428   3.355   6.136
   90MYC   4H1516606   6.268   3.302   6.142
   90MYC    C7916607   6.291   3.483   6.017
   90MYC   1H1516608   6.367   3.562   6.019
   90MYC   2H1516609   6.192   3.527   6.033
   90MYC    C7816610   6.308   3.426   5.876
   90MYC   9H1416611   6.253   3.331   5.882
   90MYC   0H1516612   6.415   3.405   5.866
   90MYC    C7716613   6.244   3.511   5.765
   90MYC   7H1416614   6.275   3.616   5.774
   90MYC   8H1416615   6.134   3.500   5.765
   90MYC    C7616616   6.293   3.473   5.624
   90MYC   5H1416617   6.277   3.368   5.597
   90MYC   6H1416618   6.402   3.475   5.630
   90MYC    C7516619   6.238   3.559   5.509
   90MYC   3H1416620   6.259   3.662   5.541
   90MYC   4H1416621   6.129   3.558   5.508
   90MYC    C7416622   6.308   3.543   5.374
   90MYC   1H1416623   6.309   3.439   5.336
   90MYC   2H1416624   6.412   3.577   5.387
   90MYC    C7316625   6.243   3.624   5.261
   90MYC   9H1316626   6.266   3.729   5.284
   90MYC   0H1416627   6.134   3.612   5.260
   90MYC    C7216628   6.288   3.587   5.119
   90MYC   7H1316629   6.306   3.480   5.100
   90MYC   8H1316630   6.382   3.645   5.121
   90MYC    C7116631   6.204   3.649   5.006
   90MYC   5H1316632   6.216   3.758   5.003
   90MYC   6H1316633   6.101   3.620   5.026
   90MYC    C7016634   6.251   3.606   4.866
   90MYC   3H1316635   6.220   3.500   4.867
   90MYC   4H1316636   6.359   3.611   4.850
   90MYC    C6916637   6.177   3.669   4.748
   90MYC   1H1316638   6.196   3.777   4.748
   90MYC   2H1316639   6.068   3.652   4.751
   90MYC    C6816640   6.219   3.607   4.614
   90MYC   9H1216641   6.195   3.501   4.625
   90MYC   0H1316642   6.329   3.607   4.612
   90MYC    C6716643   6.158   3.677   4.491
   90MYC   7H1216644   6.202   3.777   4.487
   90MYC   8H1216645   6.049   3.667   4.493
   90MYC    C6616646   6.193   3.614   4.356
   90MYC   5H1216647   6.174   3.506   4.349
   90MYC   6H1216648   6.302   3.626   4.364
   90MYC    C6516649   6.127   3.689   4.239
   90MYC   3H1216650   6.146   3.796   4.250
   90MYC   4H1216651   6.020   3.663   4.243
   90MYC    C6416652   6.186   3.648   4.103
   90MYC   1H1216653   6.186   3.539   4.100
   90MYC   2H1216654   6.290   3.682   4.106
   90MYC    C6316655   6.111   3.707   3.982
   90MYC   9H1116656   6.108   3.816   3.998
   90MYC   0H1216657   6.010   3.665   3.984
   90MYC    C6216658   6.171   3.666   3.846
   90MYC   7H1116659   6.164   3.559   3.824
   90MYC   8H1116660   6.280   3.670   3.855
   90MYC    C6116661   6.120   3.741   3.722
   90MYC   5H1116662   6.135   3.849   3.734
   90MYC   6H1116663   6.014   3.715   3.711
   90MYC    C6016664   6.184   3.688   3.594
   90MYC   4H1116665   6.181   3.580   3.585
   90MYC    C5816666   6.199   3.775   3.472
   90MYC   1H1116667   6.180   3.881   3.481
   90MYC    C5916668   6.322   3.727   3.545
   90MYC   2H1116669   6.379   3.646   3.501
   90MYC   3H1116670   6.374   3.803   3.603
   90MYC    C5716671   6.158   3.716   3.337
   90MYC   9H1016672   6.048   3.720   3.338
   90MYC   0H1116673   6.192   3.613   3.326
   90MYC    C5616674   6.197   3.797   3.213
   90MYC   7H1016675   6.303   3.826   3.211
   90MYC   8H1016676   6.151   3.897   3.209
   90MYC    C5516677   6.160   3.715   3.088
   90MYC   5H1016678   6.050   3.712   3.086
   90MYC   6H1016679   6.206   3.617   3.107
   90MYC    C5416680   6.202   3.789   2.960
   90MYC   3H1016681   6.311   3.799   2.962
   90MYC   4H1016682   6.167   3.893   2.958
   90MYC    C5316683   6.146   3.716   2.837
   90MYC   1H1016684   6.038   3.731   2.828
   90MYC   2H1016685   6.178   3.612   2.850
   90MYC    C5216686   6.219   3.763   2.709
   90MYC    H9916687   6.323   3.731   2.724
   90MYC   0H1016688   6.217   3.873   2.698
   90MYC    C5116689   6.155   3.699   2.585
   90MYC    H9716690   6.047   3.714   2.585
   90MYC    H9816691   6.180   3.592   2.589
   90MYC    C5016692   6.211   3.755   2.453
   90MYC    H9516693   6.298   3.696   2.422
   90MYC    H9616694   6.250   3.854   2.479
   90MYC    C4916695   6.109   3.759   2.338
   90MYC    H9316696   6.016   3.807   2.369
   90MYC    H9416697   6.093   3.654   2.314
   90MYC    C4816698   6.166   3.831   2.214
   90MYC    H9116699   6.254   3.770   2.188
   90MYC    H9216700   6.202   3.933   2.234
   90MYC    C4716701   6.075   3.833   2.090
   90MYC    H8916702   6.065   3.935   2.051
   90MYC    H9016703   5.972   3.806   2.116
   90MYC    C4616704   6.141   3.749   1.980
   90MYC    H8716705   6.126   3.644   2.008
   90MYC    H8816706   6.245   3.780   1.965
   90MYC    C4516707   6.069   3.751   1.844
   90MYC    H8516708   6.092   3.835   1.776
   90MYC    H8616709   5.963   3.760   1.869
   90MYC    C4416710   6.072   3.627   1.753
   90MYC    H8316711   5.998   3.635   1.672
   90MYC    H8416712   6.038   3.540   1.810
   90MYC    C1816713   6.200   3.586   1.681
   90MYC    H3116714   6.245   3.667   1.625
   90MYC    C1716715   6.299   3.497   1.751
   90MYC    H3016716   6.276   3.465   1.853
   90MYC    C1916717   6.220   3.444   1.634
   90MYC    H3216718   6.151   3.364   1.659
   90MYC    H3316719   6.268   3.425   1.538
   90MYC    C1616720   6.446   3.531   1.726
   90MYC    H2816721   6.499   3.615   1.772
   90MYC    H2916722   6.462   3.554   1.621
   90MYC    C1516723   6.523   3.400   1.752
   90MYC    H2616724   6.626   3.433   1.732
   90MYC    H2716725   6.505   3.324   1.676
   90MYC    C1416726   6.526   3.346   1.896
   90MYC    H2416727   6.548   3.238   1.896
   90MYC    H2516728   6.421   3.348   1.929
   90MYC    C1316729   6.609   3.422   2.001
   90MYC    H2216730   6.590   3.529   2.010
   90MYC    H2316731   6.715   3.419   1.972
   90MYC    C1216732   6.611   3.354   2.139
   90MYC    H2016733   6.646   3.250   2.131
   90MYC    H2116734   6.508   3.349   2.177
   90MYC    C1116735   6.692   3.442   2.236
   90MYC    H1816736   6.649   3.543   2.234
   90MYC    H1916737   6.797   3.454   2.208
   90MYC    C1016738   6.709   3.379   2.375
   90MYC    H1616739   6.812   3.413   2.395
   90MYC    H1716740   6.711   3.270   2.367
   90MYC     C916741   6.606   3.435   2.475
   90MYC    H1416742   6.505   3.409   2.440
   90MYC    H1516743   6.595   3.544   2.474
   90MYC     C816744   6.627   3.379   2.617
   90MYC    H1216745   6.730   3.395   2.650
   90MYC    H1316746   6.616   3.270   2.615
   90MYC     C716747   6.544   3.452   2.724
   90MYC    H1016748   6.439   3.425   2.710
   90MYC    H1116749   6.563   3.559   2.708
   90MYC     C616750   6.595   3.424   2.867
   90MYC     H816751   6.697   3.456   2.888
   90MYC     H916752   6.603   3.317   2.890
   90MYC     C516753   6.505   3.498   2.967
   90MYC     H616754   6.401   3.463   2.975
   90MYC     H716755   6.501   3.601   2.929
   90MYC     C416756   6.561   3.507   3.110
   90MYC     H416757   6.532   3.605   3.148
   90MYC     H516758   6.671   3.513   3.102
   90MYC     C216759   6.523   3.396   3.209
   90MYC     H216760   6.451   3.438   3.279
   90MYC     O316761   6.473   3.281   3.141
   90MYC     H316762   6.468   3.290   3.045
   90MYC     C116763   6.639   3.358   3.304
   90MYC     H116764   6.690   3.452   3.327
   90MYC    C8116765   6.735   3.263   3.234
   90MYC    O8216766   6.770   3.156   3.282
   90MYC    O8316767   6.763   3.287   3.104
   90MYC   6H1516768   6.811   3.213   3.064
   90MYC    C2016769   6.580   3.298   3.432
   90MYC    H3416770   6.513   3.217   3.402
   90MYC    H3516771   6.665   3.248   3.480
   90MYC    C2116772   6.517   3.389   3.540
   90MYC    H3616773   6.548   3.492   3.519
   90MYC    H3716774   6.407   3.382   3.537
   90MYC    C2216775   6.555   3.328   3.676
   90MYC    H3816776   6.524   3.223   3.674
   90MYC    H3916777   6.663   3.333   3.689
   90MYC    C2316778   6.486   3.389   3.799
   90MYC    H4016779   6.512   3.496   3.799
   90MYC    H4116780   6.377   3.379   3.792
   90MYC    C2416781   6.539   3.333   3.932
   90MYC    H4216782   6.513   3.227   3.926
   90MYC    H4316783   6.648   3.339   3.934
   90MYC    C2516784   6.471   3.388   4.059
   90MYC    H4416785   6.508   3.492   4.061
   90MYC    H4516786   6.361   3.383   4.059
   90MYC    C2616787   6.510   3.305   4.182
   90MYC    H4616788   6.465   3.205   4.182
   90MYC    H4716789   6.618   3.291   4.177
   90MYC    C2716790   6.476   3.376   4.314
   90MYC    H4816791   6.518   3.477   4.324
   90MYC    H4916792   6.368   3.380   4.332
   90MYC    C2816793   6.540   3.290   4.425
   90MYC    H5016794   6.518   3.184   4.408
   90MYC    H5116795   6.649   3.299   4.421
   90MYC    C2916796   6.491   3.339   4.563
   90MYC    H5216797   6.500   3.448   4.567
   90MYC    H5316798   6.383   3.321   4.573
   90MYC    C3016799   6.563   3.271   4.680
   90MYC    H5416800   6.532   3.166   4.678
   90MYC    H5516801   6.669   3.294   4.666
   90MYC    C3116802   6.519   3.313   4.821
   90MYC    H5616803   6.508   3.422   4.817
   90MYC    H5716804   6.415   3.285   4.838
   90MYC    C3216805   6.618   3.253   4.923
   90MYC    H5816806   6.622   3.144   4.917
   90MYC    H5916807   6.719   3.286   4.897
   90MYC    C3316808   6.585   3.303   5.065
   90MYC    H6016809   6.587   3.412   5.066
   90MYC    H6116810   6.480   3.278   5.083
   90MYC    C3416811   6.674   3.241   5.174
   90MYC    H6216812   6.660   3.133   5.167
   90MYC    H6316813   6.777   3.275   5.156
   90MYC    C3516814   6.627   3.283   5.314
   90MYC    H6416815   6.644   3.391   5.311
   90MYC    H6516816   6.520   3.264   5.331
   90MYC    C3616817   6.704   3.216   5.429
   90MYC    H6616818   6.683   3.109   5.435
   90MYC    H6716819   6.810   3.240   5.414
   90MYC    C3716820   6.664   3.278   5.564
   90MYC    H6816821   6.654   3.387   5.563
   90MYC    H6916822   6.566   3.235   5.590
   90MYC    C3816823   6.774   3.253   5.669
   90MYC    H7016824   6.802   3.149   5.688
   90MYC    H7116825   6.870   3.291   5.632
   90MYC    C3916826   6.748   3.328   5.801
   90MYC    H7216827   6.772   3.433   5.780
   90MYC    H7316828   6.643   3.331   5.830
   90MYC    C4016829   6.851   3.287   5.908
   90MYC    H7416830   6.834   3.183   5.935
   90MYC    H7516831   6.952   3.294   5.865
   90MYC    C4116832   6.845   3.381   6.029
   90MYC    H7616833   6.837   3.487   6.000
   90MYC    H7716834   6.758   3.341   6.082
   90MYC    C4216835   6.957   3.367   6.133
   90MYC    H7816836   6.968   3.261   6.158
   90MYC    H7916837   7.057   3.399   6.100
   90MYC    C4316838   6.921   3.441   6.264
   90MYC    H8016839   7.009   3.488   6.311
   90MYC    H8116840   6.872   3.375   6.336
   90MYC    H8216841   6.854   3.523   6.237
   91MYC   5H1516842  -0.020   4.621   6.209
   91MYC    C8016843  -0.052   4.570   6.117
   91MYC   3H1516844  -0.088   4.467   6.132
   91MYC   4H1516845  -0.154   4.609   6.103
   91MYC    C7916846   0.033   4.599   5.992
   91MYC   1H1516847   0.128   4.545   5.990
   91MYC   2H1516848   0.054   4.706   5.981
   91MYC    C7816849  -0.046   4.551   5.869
   91MYC   9H1416850  -0.145   4.597   5.873
   91MYC   0H1516851  -0.075   4.445   5.866
   91MYC    C7716852   0.010   4.607   5.737
   91MYC   7H1416853   0.117   4.583   5.731
   91MYC   8H1416854   0.008   4.715   5.751
   91MYC    C7616855  -0.079   4.565   5.619
   91MYC   5H1416856  -0.184   4.592   5.637
   91MYC   6H1416857  -0.073   4.456   5.612
   91MYC    C7516858  -0.026   4.626   5.488
   91MYC   3H1416859   0.081   4.605   5.481
   91MYC   4H1416860  -0.047   4.733   5.495
   91MYC    C7416861  -0.103   4.576   5.365
   91MYC   1H1416862  -0.209   4.601   5.376
   91MYC   2H1416863  -0.099   4.466   5.371
   91MYC    C7316864  -0.045   4.634   5.235
   91MYC   9H1316865   0.061   4.605   5.225
   91MYC   0H1416866  -0.046   4.743   5.246
   91MYC    C7216867  -0.125   4.589   5.112
   91MYC   7H1316868  -0.233   4.599   5.127
   91MYC   8H1316869  -0.108   4.481   5.101
   91MYC    C7116870  -0.077   4.668   4.989
   91MYC   5H1316871   0.028   4.639   4.976
   91MYC   6H1316872  -0.083   4.776   5.010
   91MYC    C7016873  -0.171   4.644   4.869
   91MYC   3H1316874  -0.275   4.668   4.895
   91MYC   4H1316875  -0.173   4.537   4.850
   91MYC    C6916876  -0.127   4.733   4.751
   91MYC   1H1316877  -0.018   4.726   4.746
   91MYC   2H1316878  -0.154   4.837   4.775
   91MYC    C6816879  -0.207   4.675   4.634
   91MYC   9H1216880  -0.313   4.670   4.660
   91MYC   0H1316881  -0.188   4.567   4.625
   91MYC    C6716882  -0.172   4.750   4.504
   91MYC   7H1216883  -0.065   4.777   4.509
   91MYC   8H1216884  -0.231   4.842   4.501
   91MYC    C6616885  -0.188   4.658   4.383
   91MYC   5H1216886  -0.286   4.610   4.391
   91MYC   6H1216887  -0.103   4.588   4.388
   91MYC    C6516888  -0.174   4.728   4.247
   91MYC   3H1216889  -0.080   4.785   4.246
   91MYC   4H1216890  -0.260   4.797   4.242
   91MYC    C6416891  -0.173   4.625   4.132
   91MYC   1H1216892  -0.250   4.552   4.157
   91MYC   2H1216893  -0.079   4.569   4.134
   91MYC    C6316894  -0.213   4.679   3.994
   91MYC   9H1116895  -0.145   4.764   3.980
   91MYC   0H1216896  -0.316   4.719   3.994
   91MYC    C6216897  -0.193   4.579   3.879
   91MYC   7H1116898  -0.232   4.479   3.901
   91MYC   8H1116899  -0.084   4.565   3.869
   91MYC    C6116900  -0.244   4.636   3.746
   91MYC   5H1116901  -0.223   4.744   3.748
   91MYC   6H1116902  -0.353   4.624   3.739
   91MYC    C6016903  -0.171   4.566   3.632
   91MYC   4H1116904  -0.170   4.458   3.640
   91MYC    C5816905  -0.161   4.631   3.496
   91MYC   1H1116906  -0.213   4.726   3.488
   91MYC    C5916907  -0.039   4.623   3.585
   91MYC   2H1116908   0.037   4.550   3.561
   91MYC   3H1116909   0.001   4.714   3.629
   91MYC    C5716910  -0.164   4.555   3.365
   91MYC   9H1016911  -0.266   4.546   3.325
   91MYC   0H1116912  -0.114   4.458   3.379
   91MYC    C5616913  -0.078   4.618   3.254
   91MYC   7H1016914   0.027   4.596   3.278
   91MYC   8H1016915  -0.103   4.725   3.244
   91MYC    C5516916  -0.105   4.558   3.115
   91MYC   5H1016917  -0.213   4.552   3.096
   91MYC   6H1016918  -0.067   4.455   3.107
   91MYC    C5416919  -0.022   4.632   3.009
   91MYC   3H1016920   0.075   4.583   3.000
   91MYC   4H1016921  -0.004   4.738   3.034
   91MYC    C5316922  -0.080   4.627   2.866
   91MYC   1H1016923  -0.169   4.689   2.862
   91MYC   2H1016924  -0.111   4.523   2.846
   91MYC    C5216925   0.020   4.681   2.763
   91MYC    H9916926   0.101   4.608   2.754
   91MYC   0H1016927   0.075   4.767   2.804
   91MYC    C5116928  -0.048   4.706   2.628
   91MYC    H9716929   0.012   4.769   2.561
   91MYC    H9816930  -0.146   4.756   2.638
   91MYC    C5016931  -0.064   4.574   2.551
   91MYC    H9516932  -0.091   4.482   2.604
   91MYC    H9616933   0.036   4.561   2.508
   91MYC    C4916934  -0.167   4.593   2.438
   91MYC    H9316935  -0.145   4.685   2.383
   91MYC    H9416936  -0.270   4.594   2.477
   91MYC    C4816937  -0.156   4.470   2.346
   91MYC    H9116938  -0.187   4.379   2.399
   91MYC    H9216939  -0.053   4.454   2.313
   91MYC    C4716940  -0.235   4.494   2.216
   91MYC    H8916941  -0.190   4.572   2.154
   91MYC    H9016942  -0.337   4.522   2.246
   91MYC    C4616943  -0.243   4.365   2.133
   91MYC    H8716944  -0.272   4.276   2.190
   91MYC    H8816945  -0.148   4.333   2.089
   91MYC    C4516946  -0.341   4.376   2.015
   91MYC    H8516947  -0.332   4.473   1.963
   91MYC    H8616948  -0.440   4.379   2.062
   91MYC    C4416949  -0.334   4.256   1.919
   91MYC    H8316950  -0.432   4.264   1.871
   91MYC    H8416951  -0.336   4.166   1.981
   91MYC    C1816952  -0.221   4.271   1.818
   91MYC    H3116953  -0.122   4.290   1.860
   91MYC    C1716954  -0.216   4.169   1.707
   91MYC    H3016955  -0.289   4.089   1.703
   91MYC    C1916956  -0.259   4.311   1.677
   91MYC    H3216957  -0.362   4.342   1.663
   91MYC    H3316958  -0.185   4.377   1.633
   91MYC    C1616959  -0.084   4.131   1.642
   91MYC    H2816960  -0.024   4.221   1.627
   91MYC    H2916961  -0.098   4.104   1.537
   91MYC    C1516962  -0.015   4.013   1.713
   91MYC    H2616963   0.079   3.987   1.662
   91MYC    H2716964  -0.065   3.916   1.720
   91MYC    C1416965   0.024   4.049   1.857
   91MYC    H2416966  -0.065   4.077   1.915
   91MYC    H2516967   0.083   4.142   1.852
   91MYC    C1316968   0.099   3.939   1.933
   91MYC    H2216969   0.205   3.945   1.903
   91MYC    H2316970   0.066   3.839   1.901
   91MYC    C1216971   0.093   3.943   2.086
   91MYC    H2016972  -0.007   3.914   2.121
   91MYC    H2116973   0.115   4.047   2.116
   91MYC    C1116974   0.201   3.858   2.155
   91MYC    H1816975   0.302   3.880   2.118
   91MYC    H1916976   0.187   3.757   2.114
   91MYC    C1016977   0.183   3.853   2.308
   91MYC    H1616978   0.229   3.759   2.339
   91MYC    H1716979   0.076   3.852   2.330
   91MYC     C916980   0.258   3.967   2.379
   91MYC    H1416981   0.227   4.064   2.340
   91MYC    H1516982   0.367   3.964   2.369
   91MYC     C816983   0.232   3.983   2.530
   91MYC    H1216984   0.219   3.888   2.583
   91MYC    H1316985   0.143   4.045   2.548
   91MYC     C716986   0.348   4.059   2.595
   91MYC    H1016987   0.349   4.151   2.535
   91MYC    H1116988   0.441   4.002   2.581
   91MYC     C616989   0.328   4.098   2.743
   91MYC     H816990   0.301   4.003   2.792
   91MYC     H916991   0.236   4.158   2.749
   91MYC     C516992   0.439   4.159   2.830
   91MYC     H616993   0.422   4.267   2.836
   91MYC     H716994   0.541   4.149   2.792
   91MYC     C416995   0.437   4.107   2.975
   91MYC     H416996   0.530   4.144   3.021
   91MYC     H516997   0.453   3.999   2.972
   91MYC     C216998   0.326   4.141   3.076
   91MYC     H216999   0.369   4.221   3.138
   91MYC     O317000   0.208   4.201   3.024
   91MYC     H317001   0.220   4.189   2.929
   91MYC     C117002   0.287   4.022   3.165
   91MYC     H117003   0.376   3.961   3.184
   91MYC    C8117004   0.187   3.932   3.093
   91MYC    O8217005   0.076   3.906   3.136
   91MYC    O8317006   0.250   3.838   3.021
   91MYC   6H1517007   0.201   3.758   3.047
   91MYC    C2017008   0.231   4.065   3.302
   91MYC    H3417009   0.292   4.147   3.342
   91MYC    H3517010   0.122   4.081   3.299
   91MYC    C2117011   0.252   3.965   3.416
   91MYC    H3617012   0.203   3.870   3.389
   91MYC    H3717013   0.360   3.947   3.415
   91MYC    C2217014   0.206   4.015   3.554
   91MYC    H3817015   0.253   4.112   3.572
   91MYC    H3917016   0.100   4.042   3.540
   91MYC    C2317017   0.235   3.920   3.671
   91MYC    H4017018   0.208   3.815   3.650
   91MYC    H4117019   0.342   3.934   3.691
   91MYC    C2417020   0.157   3.969   3.794
   91MYC    H4217021   0.202   4.064   3.824
   91MYC    H4317022   0.049   3.983   3.781
   91MYC    C2517023   0.181   3.874   3.912
   91MYC    H4417024   0.131   3.778   3.892
   91MYC    H4517025   0.289   3.863   3.930
   91MYC    C2617026   0.101   3.927   4.032
   91MYC    H4617027   0.139   4.029   4.042
   91MYC    H4717028  -0.008   3.923   4.020
   91MYC    C2717029   0.132   3.853   4.163
   91MYC    H4817030   0.068   3.764   4.175
   91MYC    H4917031   0.232   3.808   4.168
   91MYC    C2817032   0.101   3.934   4.289
   91MYC    H5017033   0.156   4.028   4.290
   91MYC    H5117034  -0.008   3.949   4.289
   91MYC    C2917035   0.132   3.852   4.416
   91MYC    H5217036   0.084   3.754   4.402
   91MYC    H5317037   0.241   3.844   4.405
   91MYC    C3017038   0.081   3.917   4.546
   91MYC    H5417039   0.107   4.023   4.540
   91MYC    H5517040  -0.028   3.902   4.550
   91MYC    C3117041   0.141   3.855   4.673
   91MYC    H5617042   0.118   3.749   4.684
   91MYC    H5717043   0.250   3.864   4.677
   91MYC    C3217044   0.073   3.921   4.795
   91MYC    H5817045   0.039   4.024   4.782
   91MYC    H5917046  -0.015   3.866   4.831
   91MYC    C3317047   0.162   3.909   4.920
   91MYC    H6017048   0.192   3.804   4.935
   91MYC    H6117049   0.256   3.964   4.905
   91MYC    C3417050   0.086   3.954   5.046
   91MYC    H6217051   0.048   4.056   5.031
   91MYC    H6317052   0.010   3.875   5.056
   91MYC    C3517053   0.170   3.947   5.175
   91MYC    H6417054   0.219   3.852   5.198
   91MYC    H6517055   0.253   4.018   5.165
   91MYC    C3617056   0.080   3.974   5.297
   91MYC    H6617057   0.021   4.065   5.285
   91MYC    H6717058   0.004   3.895   5.300
   91MYC    C3717059   0.154   3.974   5.432
   91MYC    H6817060   0.247   3.917   5.422
   91MYC    H6917061   0.186   4.073   5.466
   91MYC    C3817062   0.063   3.907   5.536
   91MYC    H7017063  -0.041   3.939   5.522
   91MYC    H7117064   0.065   3.799   5.520
   91MYC    C3917065   0.109   3.949   5.677
   91MYC    H7217066   0.217   3.935   5.690
   91MYC    H7317067   0.092   4.057   5.693
   91MYC    C4017068   0.047   3.862   5.787
   91MYC    H7417069  -0.063   3.864   5.781
   91MYC    H7517070   0.065   3.754   5.773
   91MYC    C4117071   0.106   3.909   5.921
   91MYC    H7617072   0.213   3.887   5.908
   91MYC    H7717073   0.103   4.019   5.925
   91MYC    C4217074   0.054   3.831   6.042
   91MYC    H7817075  -0.055   3.837   6.040
   91MYC    H7917076   0.080   3.724   6.038
   91MYC    C4317077   0.115   3.894   6.168
   91MYC    H8017078   0.049   3.876   6.255
   91MYC    H8117079   0.127   4.003   6.162
   91MYC    H8217080   0.216   3.856   6.188
   92MYC   5H1517081   0.341   5.708   6.216
   92MYC    C8017082   0.272   5.650   6.154
   92MYC   3H1517083   0.254   5.559   6.213
   92MYC   4H1517084   0.176   5.704   6.155
   92MYC    C7917085   0.327   5.635   6.011
   92MYC   1H1517086   0.436   5.621   6.012
   92MYC   2H1517087   0.314   5.733   5.963
   92MYC    C7817088   0.267   5.529   5.916
   92MYC   9H1417089   0.163   5.562   5.903
   92MYC   0H1517090   0.263   5.433   5.968
   92MYC    C7717091   0.338   5.509   5.781
   92MYC   7H1417092   0.446   5.505   5.800
   92MYC   8H1417093   0.321   5.599   5.720
   92MYC    C7617094   0.295   5.380   5.710
   92MYC   5H1417095   0.187   5.370   5.728
   92MYC   6H1417096   0.338   5.291   5.757
   92MYC    C7517097   0.326   5.365   5.560
   92MYC   3H1417098   0.308   5.258   5.544
   92MYC   4H1417099   0.431   5.392   5.550
   92MYC    C7417100   0.232   5.437   5.462
   92MYC   1H1417101   0.202   5.535   5.502
   92MYC   2H1417102   0.139   5.381   5.446
   92MYC    C7317103   0.301   5.447   5.325
   92MYC   9H1317104   0.362   5.358   5.305
   92MYC   0H1417105   0.371   5.530   5.338
   92MYC    C7217106   0.205   5.477   5.209
   92MYC   7H1317107   0.140   5.564   5.225
   92MYC   8H1317108   0.150   5.385   5.187
   92MYC    C7117109   0.284   5.507   5.080
   92MYC   5H1317110   0.369   5.439   5.083
   92MYC   6H1317111   0.330   5.606   5.085
   92MYC    C7017112   0.200   5.504   4.951
   92MYC   3H1317113   0.148   5.601   4.938
   92MYC   4H1317114   0.125   5.424   4.952
   92MYC    C6917115   0.292   5.488   4.828
   92MYC   1H1317116   0.326   5.384   4.831
   92MYC   2H1317117   0.381   5.551   4.834
   92MYC    C6817118   0.216   5.514   4.697
   92MYC   9H1217119   0.167   5.612   4.707
   92MYC   0H1317120   0.132   5.445   4.688
   92MYC    C6717121   0.307   5.510   4.572
   92MYC   7H1217122   0.351   5.410   4.579
   92MYC   8H1217123   0.382   5.590   4.573
   92MYC    C6617124   0.220   5.525   4.446
   92MYC   5H1217125   0.188   5.630   4.444
   92MYC   6H1217126   0.132   5.459   4.446
   92MYC    C6517127   0.306   5.504   4.320
   92MYC   3H1217128   0.371   5.416   4.316
   92MYC   4H1217129   0.385   5.580   4.319
   92MYC    C6417130   0.227   5.516   4.188
   92MYC   1H1217131   0.194   5.621   4.184
   92MYC   2H1217132   0.141   5.449   4.196
   92MYC    C6317133   0.307   5.474   4.063
   92MYC   9H1117134   0.317   5.365   4.054
   92MYC   0H1217135   0.409   5.511   4.080
   92MYC    C6217136   0.248   5.542   3.938
   92MYC   7H1117137   0.235   5.650   3.949
   92MYC   8H1117138   0.146   5.505   3.922
   92MYC    C6117139   0.333   5.511   3.813
   92MYC   5H1117140   0.359   5.405   3.814
   92MYC   6H1117141   0.425   5.569   3.828
   92MYC    C6017142   0.283   5.558   3.677
   92MYC   4H1117143   0.261   5.664   3.671
   92MYC    C5817144   0.339   5.500   3.549
   92MYC   1H1117145   0.399   5.411   3.566
   92MYC    C5917146   0.198   5.468   3.591
   92MYC   2H1117147   0.117   5.501   3.526
   92MYC   3H1117148   0.164   5.381   3.646
   92MYC    C5717149   0.368   5.580   3.423
   92MYC   9H1017150   0.478   5.585   3.414
   92MYC   0H1117151   0.328   5.682   3.421
   92MYC    C5617152   0.314   5.503   3.301
   92MYC   7H1017153   0.205   5.492   3.307
   92MYC   8H1017154   0.351   5.400   3.303
   92MYC    C5517155   0.348   5.564   3.164
   92MYC   5H1017156   0.456   5.581   3.155
   92MYC   6H1017157   0.313   5.668   3.162
   92MYC    C5417158   0.295   5.473   3.051
   92MYC   3H1017159   0.188   5.462   3.071
   92MYC   4H1017160   0.339   5.375   3.070
   92MYC    C5317161   0.330   5.531   2.913
   92MYC   1H1017162   0.438   5.542   2.897
   92MYC   2H1017163   0.282   5.629   2.918
   92MYC    C5217164   0.270   5.447   2.799
   92MYC    H9917165   0.165   5.423   2.818
   92MYC   0H1017166   0.326   5.353   2.790
   92MYC    C5117167   0.287   5.526   2.668
   92MYC    H9717168   0.394   5.540   2.652
   92MYC    H9817169   0.248   5.627   2.688
   92MYC    C5017170   0.224   5.468   2.540
   92MYC    H9517171   0.115   5.474   2.548
   92MYC    H9617172   0.245   5.361   2.543
   92MYC    C4917173   0.273   5.536   2.411
   92MYC    H9317174   0.382   5.545   2.409
   92MYC    H9417175   0.238   5.640   2.400
   92MYC    C4817176   0.225   5.459   2.287
   92MYC    H9117177   0.116   5.468   2.285
   92MYC    H9217178   0.250   5.352   2.287
   92MYC    C4717179   0.285   5.526   2.163
   92MYC    H8917180   0.393   5.510   2.159
   92MYC    H9017181   0.269   5.635   2.167
   92MYC    C4617182   0.221   5.486   2.028
   92MYC    H8717183   0.117   5.517   2.039
   92MYC    H8817184   0.229   5.378   2.010
   92MYC    C4517185   0.289   5.558   1.911
   92MYC    H8517186   0.385   5.510   1.892
   92MYC    H8617187   0.315   5.661   1.938
   92MYC    C4417188   0.208   5.554   1.780
   92MYC    H8317189   0.269   5.604   1.703
   92MYC    H8417190   0.111   5.604   1.793
   92MYC    C1817191   0.196   5.413   1.724
   92MYC    H3117192   0.289   5.370   1.689
   92MYC    C1717193   0.085   5.332   1.786
   92MYC    H3017194   0.023   5.384   1.859
   92MYC    C1917195   0.072   5.381   1.644
   92MYC    H3217196  -0.000   5.458   1.617
   92MYC    H3317197   0.082   5.306   1.565
   92MYC    C1617198   0.115   5.186   1.817
   92MYC    H2817199   0.177   5.175   1.907
   92MYC    H2917200   0.175   5.155   1.731
   92MYC    C1517201  -0.004   5.091   1.839
   92MYC    H2617202   0.024   4.987   1.860
   92MYC    H2717203  -0.076   5.082   1.757
   92MYC    C1417204  -0.085   5.127   1.965
   92MYC    H2417205  -0.130   5.227   1.958
   92MYC    H2517206  -0.006   5.142   2.040
   92MYC    C1317207  -0.194   5.037   2.026
   92MYC    H2217208  -0.160   4.933   2.032
   92MYC    H2317209  -0.289   5.032   1.972
   92MYC    C1217210  -0.219   5.085   2.170
   92MYC    H2017211  -0.265   5.184   2.169
   92MYC    H2117212  -0.127   5.091   2.230
   92MYC    C1117213  -0.321   4.999   2.245
   92MYC    H1817214  -0.293   4.894   2.259
   92MYC    H1917215  -0.407   5.010   2.178
   92MYC    C1017216  -0.368   5.056   2.380
   92MYC    H1617217  -0.467   5.013   2.401
   92MYC    H1717218  -0.389   5.163   2.369
   92MYC     C917219  -0.263   5.048   2.492
   92MYC    H1417220  -0.172   5.102   2.463
   92MYC    H1517221  -0.246   4.944   2.522
   92MYC     C817222  -0.306   5.117   2.622
   92MYC    H1217223  -0.382   5.057   2.673
   92MYC    H1317224  -0.340   5.219   2.599
   92MYC     C717225  -0.191   5.138   2.723
   92MYC    H1017226  -0.141   5.234   2.701
   92MYC    H1117227  -0.106   5.070   2.712
   92MYC     C617228  -0.245   5.132   2.866
   92MYC     H817229  -0.269   5.025   2.880
   92MYC     H917230  -0.340   5.187   2.871
   92MYC     C517231  -0.155   5.189   2.977
   92MYC     H617232  -0.184   5.289   3.009
   92MYC     H717233  -0.052   5.192   2.940
   92MYC     C417234  -0.164   5.106   3.106
   92MYC     H417235  -0.084   5.132   3.177
   92MYC     H517236  -0.145   5.003   3.073
   92MYC     C217237  -0.299   5.103   3.179
   92MYC     H217238  -0.293   5.194   3.240
   92MYC     O317239  -0.411   5.102   3.092
   92MYC     H317240  -0.452   5.189   3.101
   92MYC     C117241  -0.301   4.981   3.273
   92MYC     H117242  -0.199   4.944   3.289
   92MYC    C8117243  -0.385   4.876   3.202
   92MYC    O8217244  -0.505   4.865   3.218
   92MYC    O8317245  -0.322   4.784   3.125
   92MYC   6H1517246  -0.394   4.737   3.080
   92MYC    C2017247  -0.372   5.003   3.407
   92MYC    H3417248  -0.459   5.069   3.392
   92MYC    H3517249  -0.408   4.905   3.441
   92MYC    C2117250  -0.277   5.062   3.513
   92MYC    H3617251  -0.182   5.008   3.520
   92MYC    H3717252  -0.245   5.160   3.475
   92MYC    C2217253  -0.345   5.049   3.650
   92MYC    H3817254  -0.452   5.073   3.642
   92MYC    H3917255  -0.328   4.948   3.690
   92MYC    C2317256  -0.273   5.144   3.747
   92MYC    H4017257  -0.164   5.131   3.746
   92MYC    H4117258  -0.287   5.249   3.718
   92MYC    C2417259  -0.318   5.121   3.892
   92MYC    H4217260  -0.424   5.145   3.907
   92MYC    H4317261  -0.294   5.018   3.922
   92MYC    C2517262  -0.237   5.201   3.995
   92MYC    H4417263  -0.135   5.228   3.967
   92MYC    H4517264  -0.293   5.296   3.995
   92MYC    C2617265  -0.235   5.131   4.132
   92MYC    H4617266  -0.337   5.096   4.154
   92MYC    H4717267  -0.164   5.048   4.126
   92MYC    C2717268  -0.196   5.229   4.245
   92MYC    H4817269  -0.104   5.285   4.227
   92MYC    H4917270  -0.277   5.302   4.256
   92MYC    C2817271  -0.185   5.156   4.380
   92MYC    H5017272  -0.287   5.116   4.392
   92MYC    H5117273  -0.119   5.068   4.375
   92MYC    C2917274  -0.141   5.243   4.498
   92MYC    H5217275  -0.034   5.264   4.488
   92MYC    H5317276  -0.191   5.340   4.488
   92MYC    C3017277  -0.156   5.165   4.630
   92MYC    H5417278  -0.248   5.106   4.641
   92MYC    H5517279  -0.077   5.089   4.630
   92MYC    C3117280  -0.131   5.247   4.757
   92MYC    H5617281  -0.025   5.278   4.762
   92MYC    H5717282  -0.210   5.323   4.753
   92MYC    C3217283  -0.148   5.155   4.879
   92MYC    H5817284  -0.252   5.121   4.877
   92MYC    H5917285  -0.080   5.070   4.876
   92MYC    C3317286  -0.129   5.221   5.017
   92MYC    H6017287  -0.026   5.255   5.028
   92MYC    H6117288  -0.189   5.313   5.019
   92MYC    C3417289  -0.165   5.132   5.137
   92MYC    H6217290  -0.269   5.100   5.124
   92MYC    H6317291  -0.096   5.049   5.118
   92MYC    C3517292  -0.141   5.190   5.278
   92MYC    H6417293  -0.041   5.234   5.283
   92MYC    H6517294  -0.217   5.267   5.300
   92MYC    C3617295  -0.151   5.089   5.393
   92MYC    H6617296  -0.253   5.049   5.388
   92MYC    H6717297  -0.074   5.011   5.384
   92MYC    C3717298  -0.129   5.156   5.529
   92MYC    H6817299  -0.025   5.189   5.529
   92MYC    H6917300  -0.196   5.244   5.532
   92MYC    C3817301  -0.162   5.062   5.646
   92MYC    H7017302  -0.266   5.028   5.632
   92MYC    H7117303  -0.099   4.972   5.640
   92MYC    C3917304  -0.152   5.139   5.778
   92MYC    H7217305  -0.045   5.167   5.779
   92MYC    H7317306  -0.214   5.229   5.765
   92MYC    C4017307  -0.202   5.068   5.905
   92MYC    H7417308  -0.304   5.029   5.894
   92MYC    H7517309  -0.134   4.982   5.919
   92MYC    C4117310  -0.197   5.162   6.026
   92MYC    H7617311  -0.093   5.194   6.040
   92MYC    H7717312  -0.260   5.248   6.001
   92MYC    C4217313  -0.245   5.106   6.161
   92MYC    H7817314  -0.333   5.041   6.152
   92MYC    H7917315  -0.173   5.030   6.193
   92MYC    C4317316  -0.261   5.219   6.265
   92MYC    H8017317  -0.306   5.183   6.358
   92MYC    H8117318  -0.325   5.293   6.217
   92MYC    H8217319  -0.166   5.273   6.277
   93MYC   5H1517320   6.172   5.660   6.194
   93MYC    C8017321   6.236   5.705   6.117
   93MYC   3H1517322   6.223   5.813   6.103
   93MYC   4H1517323   6.339   5.679   6.145
   93MYC    C7917324   6.209   5.636   5.982
   93MYC   1H1517325   6.101   5.638   5.963
   93MYC   2H1517326   6.233   5.530   5.993
   93MYC    C7817327   6.295   5.696   5.870
   93MYC   9H1417328   6.396   5.715   5.909
   93MYC   0H1517329   6.249   5.793   5.846
   93MYC    C7717330   6.287   5.606   5.746
   93MYC   7H1417331   6.202   5.538   5.755
   93MYC   8H1417332   6.374   5.540   5.735
   93MYC    C7617333   6.277   5.693   5.619
   93MYC   5H1417334   6.361   5.763   5.625
   93MYC   6H1417335   6.183   5.749   5.627
   93MYC    C7517336   6.282   5.613   5.488
   93MYC   3H1417337   6.243   5.511   5.499
   93MYC   4H1417338   6.388   5.611   5.457
   93MYC    C7417339   6.204   5.670   5.368
   93MYC   1H1417340   6.221   5.778   5.364
   93MYC   2H1417341   6.097   5.663   5.392
   93MYC    C7317342   6.234   5.597   5.237
   93MYC   9H1317343   6.188   5.497   5.241
   93MYC   0H1417344   6.343   5.587   5.223
   93MYC    C7217345   6.175   5.683   5.124
   93MYC   7H1317346   6.224   5.781   5.127
   93MYC   8H1317347   6.067   5.702   5.131
   93MYC    C7117348   6.210   5.622   4.987
   93MYC   5H1317349   6.166   5.522   4.974
   93MYC   6H1317350   6.319   5.609   4.982
   93MYC    C7017351   6.162   5.706   4.868
   93MYC   3H1317352   6.226   5.795   4.865
   93MYC   4H1317353   6.058   5.741   4.874
   93MYC    C6917354   6.182   5.626   4.738
   93MYC   1H1317355   6.096   5.559   4.726
   93MYC   2H1317356   6.274   5.567   4.749
   93MYC    C6817357   6.192   5.715   4.612
   93MYC   9H1217358   6.280   5.776   4.636
   93MYC   0H1317359   6.108   5.785   4.608
   93MYC    C6717360   6.205   5.627   4.487
   93MYC   7H1217361   6.120   5.557   4.479
   93MYC   8H1217362   6.274   5.546   4.514
   93MYC    C6617363   6.217   5.706   4.356
   93MYC   5H1217364   6.307   5.769   4.357
   93MYC   6H1217365   6.128   5.769   4.350
   93MYC    C6517366   6.225   5.611   4.235
   93MYC   3H1217367   6.133   5.552   4.225
   93MYC   4H1217368   6.309   5.544   4.256
   93MYC    C6417369   6.245   5.686   4.102
   93MYC   1H1217370   6.337   5.744   4.113
   93MYC   2H1217371   6.161   5.757   4.097
   93MYC    C6317372   6.261   5.603   3.973
   93MYC   9H1117373   6.182   5.528   3.967
   93MYC   0H1217374   6.361   5.559   3.982
   93MYC    C6217375   6.262   5.697   3.851
   93MYC   7H1117376   6.327   5.783   3.872
   93MYC   8H1117377   6.162   5.741   3.841
   93MYC    C6117378   6.306   5.623   3.723
   93MYC   5H1117379   6.216   5.570   3.689
   93MYC   6H1117380   6.387   5.551   3.737
   93MYC    C6017381   6.350   5.717   3.612
   93MYC   4H1117382   6.448   5.761   3.627
   93MYC    C5817383   6.302   5.690   3.471
   93MYC   1H1117384   6.245   5.598   3.461
   93MYC    C5917385   6.247   5.807   3.548
   93MYC   2H1117386   6.282   5.908   3.528
   93MYC   3H1117387   6.145   5.804   3.586
   93MYC    C5717388   6.401   5.710   3.357
   93MYC   9H1017389   6.450   5.613   3.343
   93MYC   0H1117390   6.487   5.775   3.377
   93MYC    C5617391   6.332   5.756   3.228
   93MYC   7H1017392   6.400   5.830   3.183
   93MYC   8H1017393   6.241   5.815   3.240
   93MYC    C5517394   6.307   5.643   3.127
   93MYC   5H1017395   6.217   5.588   3.155
   93MYC   6H1017396   6.392   5.573   3.129
   93MYC    C5417397   6.300   5.695   2.982
   93MYC   3H1017398   6.391   5.753   2.962
   93MYC   4H1017399   6.221   5.771   2.974
   93MYC    C5317400   6.275   5.587   2.876
   93MYC   1H1017401   6.186   5.528   2.900
   93MYC   2H1017402   6.366   5.526   2.879
   93MYC    C5217403   6.251   5.650   2.737
   93MYC    H9917404   6.344   5.701   2.711
   93MYC   0H1017405   6.170   5.723   2.748
   93MYC    C5117406   6.231   5.551   2.621
   93MYC    H9717407   6.129   5.509   2.625
   93MYC    H9817408   6.299   5.467   2.634
   93MYC    C5017409   6.238   5.614   2.481
   93MYC    H9517410   6.338   5.656   2.464
   93MYC    H9617411   6.175   5.704   2.479
   93MYC    C4917412   6.197   5.518   2.369
   93MYC    H9317413   6.088   5.509   2.378
   93MYC    H9417414   6.238   5.420   2.397
   93MYC    C4817415   6.247   5.564   2.231
   93MYC    H9117416   6.356   5.559   2.222
   93MYC    H9217417   6.241   5.673   2.225
   93MYC    C4717418   6.176   5.493   2.115
   93MYC    H8917419   6.068   5.484   2.133
   93MYC    H9017420   6.208   5.388   2.110
   93MYC    C4617421   6.186   5.558   1.976
   93MYC    H8717422   6.290   5.562   1.941
   93MYC    H8817423   6.162   5.663   1.993
   93MYC    C4517424   6.098   5.501   1.864
   93MYC    H8517425   5.995   5.539   1.871
   93MYC    H8617426   6.107   5.392   1.858
   93MYC    C4417427   6.144   5.544   1.724
   93MYC    H8317428   6.078   5.492   1.653
   93MYC    H8417429   6.248   5.514   1.707
   93MYC    C1817430   6.134   5.694   1.699
   93MYC    H3117431   6.049   5.746   1.742
   93MYC    C1717432   6.256   5.783   1.704
   93MYC    H3017433   6.344   5.733   1.742
   93MYC    C1917434   6.194   5.745   1.571
   93MYC    H3217435   6.237   5.672   1.504
   93MYC    H3317436   6.134   5.816   1.515
   93MYC    C1617437   6.244   5.930   1.741
   93MYC    H2817438   6.194   5.948   1.836
   93MYC    H2917439   6.175   5.984   1.675
   93MYC    C1517440   6.378   6.005   1.749
   93MYC    H2617441   6.347   6.108   1.726
   93MYC    H2717442   6.455   5.979   1.675
   93MYC    C1417443   6.455   5.999   1.882
   93MYC    H2417444   6.551   6.050   1.867
   93MYC    H2517445   6.474   5.900   1.926
   93MYC    C1317446   6.379   6.066   1.997
   93MYC    H2217447   6.303   5.994   2.030
   93MYC    H2317448   6.317   6.152   1.967
   93MYC    C1217449   6.466   6.106   2.118
   93MYC    H2017450   6.544   6.181   2.099
   93MYC    H2117451   6.518   6.015   2.149
   93MYC    C1117452   6.372   6.159   2.228
   93MYC    H1817453   6.293   6.083   2.234
   93MYC    H1917454   6.317   6.244   2.187
   93MYC    C1017455   6.442   6.183   2.363
   93MYC    H1617456   6.497   6.277   2.377
   93MYC    H1717457   6.514   6.100   2.366
   93MYC     C917458   6.346   6.162   2.481
   93MYC    H1417459   6.301   6.062   2.486
   93MYC    H1517460   6.255   6.225   2.483
   93MYC     C817461   6.413   6.178   2.618
   93MYC    H1217462   6.412   6.284   2.648
   93MYC    H1317463   6.519   6.148   2.618
   93MYC     C717464   6.344   6.101   2.731
   93MYC    H1017465   6.367   5.994   2.724
   93MYC    H1117466   6.236   6.116   2.719
   93MYC     C617467   6.394   6.146   2.870
   93MYC     H817468   6.375   6.254   2.873
   93MYC     H917469   6.503   6.132   2.874
   93MYC     C517470   6.317   6.077   2.984
   93MYC     H617471   6.363   5.979   2.999
   93MYC     H717472   6.213   6.064   2.950
   93MYC     C417473   6.325   6.161   3.113
   93MYC     H417474   6.242   6.124   3.174
   93MYC     H517475   6.304   6.266   3.093
   93MYC     C217476   6.459   6.148   3.186
   93MYC     H217477   6.433   6.107   3.284
   93MYC     O317478   6.547   6.049   3.134
   93MYC     H317479   6.517   6.031   3.043
   93MYC     C117480   6.522   6.283   3.226
   93MYC     H117481   6.450   6.365   3.231
   93MYC    C8117482   6.613   6.327   3.111
   93MYC    O8217483   6.733   6.309   3.105
   93MYC    O8317484   6.552   6.410   3.024
   93MYC   6H1517485   6.627   6.444   2.972
   93MYC    C2017486   6.597   6.288   3.360
   93MYC    H3417487   6.651   6.195   3.380
   93MYC    H3517488   6.677   6.364   3.352
   93MYC    C2117489   6.500   6.319   3.474
   93MYC    H3617490   6.442   6.410   3.452
   93MYC    H3717491   6.426   6.238   3.486
   93MYC    C2217492   6.587   6.335   3.600
   93MYC    H3817493   6.623   6.235   3.628
   93MYC    H3917494   6.680   6.386   3.569
   93MYC    C2317495   6.514   6.402   3.717
   93MYC    H4017496   6.488   6.507   3.698
   93MYC    H4117497   6.416   6.355   3.729
   93MYC    C2417498   6.585   6.376   3.851
   93MYC    H4217499   6.606   6.269   3.867
   93MYC    H4317500   6.679   6.433   3.852
   93MYC    C2517501   6.500   6.405   3.976
   93MYC    H4417502   6.470   6.511   3.978
   93MYC    H4517503   6.417   6.334   3.977
   93MYC    C2617504   6.583   6.379   4.103
   93MYC    H4617505   6.646   6.289   4.093
   93MYC    H4717506   6.656   6.458   4.126
   93MYC    C2717507   6.500   6.367   4.231
   93MYC    H4817508   6.430   6.451   4.244
   93MYC    H4917509   6.431   6.283   4.217
   93MYC    C2817510   6.580   6.355   4.362
   93MYC    H5017511   6.655   6.278   4.342
   93MYC    H5117512   6.635   6.447   4.385
   93MYC    C2917513   6.494   6.310   4.481
   93MYC    H5217514   6.403   6.372   4.477
   93MYC    H5317515   6.468   6.204   4.473
   93MYC    C3017516   6.565   6.338   4.615
   93MYC    H5417517   6.670   6.306   4.605
   93MYC    H5517518   6.565   6.446   4.633
   93MYC    C3117519   6.508   6.268   4.739
   93MYC    H5617520   6.400   6.290   4.747
   93MYC    H5717521   6.515   6.160   4.721
   93MYC    C3217522   6.583   6.304   4.869
   93MYC    H5817523   6.692   6.301   4.856
   93MYC    H5917524   6.563   6.409   4.895
   93MYC    C3317525   6.543   6.214   4.987
   93MYC    H6017526   6.437   6.188   4.975
   93MYC    H6117527   6.607   6.125   4.989
   93MYC    C3417528   6.567   6.281   5.123
   93MYC    H6217529   6.675   6.290   5.140
   93MYC    H6317530   6.522   6.381   5.118
   93MYC    C3517531   6.498   6.203   5.236
   93MYC    H6417532   6.392   6.212   5.210
   93MYC    H6517533   6.535   6.100   5.240
   93MYC    C3617534   6.522   6.264   5.376
   93MYC    H6617535   6.630   6.253   5.391
   93MYC    H6717536   6.488   6.368   5.385
   93MYC    C3717537   6.434   6.200   5.485
   93MYC    H6817538   6.329   6.205   5.453
   93MYC    H6917539   6.459   6.094   5.497
   93MYC    C3817540   6.451   6.285   5.612
   93MYC    H7017541   6.560   6.295   5.622
   93MYC    H7117542   6.412   6.387   5.602
   93MYC    C3917543   6.392   6.224   5.740
   93MYC    H7217544   6.288   6.261   5.742
   93MYC    H7317545   6.392   6.114   5.736
   93MYC    C4017546   6.454   6.278   5.870
   93MYC    H7417547   6.562   6.282   5.852
   93MYC    H7517548   6.427   6.381   5.893
   93MYC    C4117549   6.440   6.190   5.995
   93MYC    H7617550   6.335   6.155   5.996
   93MYC    H7717551   6.504   6.104   5.971
   93MYC    C4217552   6.478   6.255   6.129
   93MYC    H7817553   6.584   6.239   6.149
   93MYC    H7917554   6.467   6.364   6.135
   93MYC    C4317555   6.396   6.194   6.244
   93MYC    H8017556   6.412   6.086   6.238
   93MYC    H8117557   6.293   6.224   6.224
   93MYC    H8217558   6.438   6.218   6.343
   94MYC   5H1517559   0.830  -0.036   6.297
   94MYC    C8017560   0.834   0.020   6.204
   94MYC   3H1517561   0.787   0.119   6.210
   94MYC   4H1517562   0.941   0.043   6.207
   94MYC    C7917563   0.792  -0.060   6.080
   94MYC   1H1517564   0.688  -0.088   6.103
   94MYC   2H1517565   0.849  -0.154   6.077
   94MYC    C7817566   0.795  -0.001   5.938
   94MYC   9H1417567   0.898   0.037   5.931
   94MYC   0H1517568   0.725   0.083   5.944
   94MYC    C7717569   0.778  -0.094   5.817
   94MYC   7H1417570   0.671  -0.117   5.806
   94MYC   8H1417571   0.833  -0.186   5.840
   94MYC    C7617572   0.839  -0.045   5.684
   94MYC   5H1417573   0.948  -0.036   5.688
   94MYC   6H1417574   0.792   0.053   5.671
   94MYC    C7517575   0.812  -0.133   5.561
   94MYC   3H1417576   0.703  -0.140   5.555
   94MYC   4H1417577   0.862  -0.230   5.569
   94MYC    C7417578   0.867  -0.062   5.435
   94MYC   1H1417579   0.976  -0.061   5.432
   94MYC   2H1417580   0.836   0.043   5.441
   94MYC    C7317581   0.813  -0.124   5.305
   94MYC   9H1317582   0.703  -0.121   5.303
   94MYC   0H1417583   0.840  -0.230   5.299
   94MYC    C7217584   0.876  -0.048   5.187
   94MYC   7H1317585   0.984  -0.052   5.200
   94MYC   8H1317586   0.844   0.057   5.190
   94MYC    C7117587   0.845  -0.109   5.049
   94MYC   5H1317588   0.737  -0.101   5.034
   94MYC   6H1317589   0.877  -0.214   5.055
   94MYC    C7017590   0.912  -0.043   4.927
   94MYC   3H1317591   1.019  -0.054   4.944
   94MYC   4H1317592   0.893   0.064   4.913
   94MYC    C6917593   0.874  -0.111   4.794
   94MYC   1H1317594   0.769  -0.093   4.767
   94MYC   2H1317595   0.895  -0.219   4.800
   94MYC    C6817596   0.965  -0.056   4.683
   94MYC   9H1217597   1.070  -0.081   4.702
   94MYC   0H1317598   0.968   0.053   4.672
   94MYC    C6717599   0.933  -0.121   4.548
   94MYC   7H1217600   0.828  -0.104   4.523
   94MYC   8H1217601   0.952  -0.230   4.547
   94MYC    C6617602   1.017  -0.064   4.432
   94MYC   5H1217603   1.121  -0.098   4.437
   94MYC   6H1217604   1.025   0.045   4.430
   94MYC    C6517605   0.942  -0.107   4.305
   94MYC   3H1217606   0.840  -0.067   4.306
   94MYC   4H1217607   0.920  -0.214   4.301
   94MYC    C6417608   1.017  -0.082   4.174
   94MYC   1H1217609   1.098  -0.155   4.165
   94MYC   2H1217610   1.059   0.019   4.171
   94MYC    C6317611   0.931  -0.117   4.051
   94MYC   9H1117612   0.848  -0.048   4.036
   94MYC   0H1217613   0.895  -0.220   4.061
   94MYC    C6217614   1.014  -0.132   3.922
   94MYC   7H1117615   1.083  -0.217   3.931
   94MYC   8H1117616   1.079  -0.044   3.918
   94MYC    C6117617   0.923  -0.134   3.798
   94MYC   5H1117618   0.860  -0.045   3.809
   94MYC   6H1117619   0.861  -0.224   3.793
   94MYC    C6017620   1.001  -0.116   3.669
   94MYC   4H1117621   1.081  -0.188   3.655
   94MYC    C5817622   0.918  -0.088   3.546
   94MYC   1H1117623   0.813  -0.062   3.560
   94MYC    C5917624   1.016   0.015   3.596
   94MYC   2H1117625   1.100   0.027   3.528
   94MYC   3H1117626   0.988   0.103   3.654
   94MYC    C5717627   0.940  -0.162   3.415
   94MYC   9H1017628   0.859  -0.230   3.387
   94MYC   0H1117629   1.035  -0.216   3.410
   94MYC    C5617630   0.929  -0.054   3.305
   94MYC   7H1017631   1.014   0.016   3.312
   94MYC   8H1017632   0.841   0.008   3.324
   94MYC    C5517633   0.922  -0.117   3.165
   94MYC   5H1017634   0.833  -0.182   3.173
   94MYC   6H1017635   1.016  -0.168   3.142
   94MYC    C5417636   0.909  -0.003   3.063
   94MYC   3H1017637   0.986   0.075   3.064
   94MYC   4H1017638   0.814   0.049   3.078
   94MYC    C5317639   0.893  -0.056   2.919
   94MYC   1H1017640   0.812  -0.131   2.922
   94MYC   2H1017641   0.985  -0.108   2.892
   94MYC    C5217642   0.873   0.053   2.812
   94MYC    H9917643   0.962   0.116   2.822
   94MYC   0H1017644   0.790   0.119   2.839
   94MYC    C5117645   0.857  -0.017   2.676
   94MYC    H9717646   0.767  -0.079   2.684
   94MYC    H9817647   0.946  -0.078   2.657
   94MYC    C5017648   0.842   0.082   2.559
   94MYC    H9517649   0.925   0.153   2.567
   94MYC    H9617650   0.750   0.142   2.562
   94MYC    C4917651   0.857   0.014   2.422
   94MYC    H9317652   0.782  -0.066   2.417
   94MYC    H9417653   0.956  -0.033   2.417
   94MYC    C4817654   0.842   0.109   2.301
   94MYC    H9117655   0.925   0.179   2.286
   94MYC    H9217656   0.755   0.174   2.314
   94MYC    C4717657   0.825   0.028   2.171
   94MYC    H8917658   0.720  -0.005   2.168
   94MYC    H9017659   0.900  -0.052   2.166
   94MYC    C4617660   0.827   0.115   2.044
   94MYC    H8717661   0.898   0.198   2.046
   94MYC    H8817662   0.724   0.149   2.026
   94MYC    C4517663   0.855   0.024   1.923
   94MYC    H8517664   0.778  -0.052   1.908
   94MYC    H8617665   0.951  -0.025   1.948
   94MYC    C4417666   0.873   0.101   1.791
   94MYC    H8317667   0.921   0.032   1.720
   94MYC    H8417668   0.947   0.181   1.805
   94MYC    C1817669   0.742   0.154   1.735
   94MYC    H3117670   0.665   0.078   1.729
   94MYC    C1717671   0.692   0.292   1.771
   94MYC    H3017672   0.757   0.353   1.834
   94MYC    C1917673   0.738   0.263   1.631
   94MYC    H3217674   0.837   0.293   1.598
   94MYC    H3317675   0.657   0.268   1.558
   94MYC    C1617676   0.546   0.307   1.810
   94MYC    H2817677   0.515   0.227   1.878
   94MYC    H2917678   0.485   0.288   1.720
   94MYC    C1517679   0.510   0.444   1.870
   94MYC    H2617680   0.405   0.451   1.901
   94MYC    H2717681   0.526   0.513   1.786
   94MYC    C1417682   0.597   0.482   1.991
   94MYC    H2417683   0.686   0.533   1.953
   94MYC    H2517684   0.633   0.386   2.028
   94MYC    C1317685   0.526   0.576   2.090
   94MYC    H2217686   0.433   0.529   2.126
   94MYC    H2317687   0.485   0.662   2.037
   94MYC    C1217688   0.622   0.616   2.204
   94MYC    H2017689   0.714   0.664   2.169
   94MYC    H2117690   0.651   0.523   2.255
   94MYC    C1117691   0.544   0.707   2.299
   94MYC    H1817692   0.475   0.645   2.358
   94MYC    H1917693   0.481   0.781   2.249
   94MYC    C1017694   0.629   0.792   2.395
   94MYC    H1617695   0.569   0.871   2.443
   94MYC    H1717696   0.702   0.857   2.345
   94MYC     C917697   0.705   0.696   2.489
   94MYC    H1417698   0.783   0.642   2.434
   94MYC    H1517699   0.638   0.614   2.519
   94MYC     C817700   0.751   0.758   2.622
   94MYC    H1217701   0.675   0.820   2.672
   94MYC    H1317702   0.830   0.829   2.595
   94MYC     C717703   0.810   0.649   2.714
   94MYC    H1017704   0.894   0.598   2.667
   94MYC    H1117705   0.740   0.566   2.727
   94MYC     C617706   0.840   0.702   2.856
   94MYC     H817707   0.746   0.718   2.911
   94MYC     H917708   0.888   0.801   2.856
   94MYC     C517709   0.934   0.614   2.939
   94MYC     H617710   1.026   0.671   2.955
   94MYC     H717711   0.971   0.520   2.898
   94MYC     C417712   0.870   0.569   3.072
   94MYC     H417713   0.913   0.475   3.110
   94MYC     H517714   0.766   0.541   3.046
   94MYC     C217715   0.870   0.657   3.198
   94MYC     H217716   0.931   0.599   3.269
   94MYC     O317717   0.930   0.785   3.181
   94MYC     H317718   0.876   0.845   3.127
   94MYC     C117719   0.730   0.657   3.260
   94MYC     H117720   0.684   0.559   3.243
   94MYC    C8117721   0.640   0.756   3.187
   94MYC    O8217722   0.649   0.877   3.203
   94MYC    O8317723   0.542   0.700   3.113
   94MYC   6H1517724   0.502   0.772   3.061
   94MYC    C2017725   0.730   0.704   3.407
   94MYC    H3417726   0.812   0.776   3.416
   94MYC    H3517727   0.638   0.759   3.430
   94MYC    C2117728   0.763   0.589   3.503
   94MYC    H3617729   0.687   0.509   3.496
   94MYC    H3717730   0.852   0.533   3.471
   94MYC    C2217731   0.754   0.647   3.645
   94MYC    H3817732   0.839   0.715   3.659
   94MYC    H3917733   0.658   0.693   3.671
   94MYC    C2317734   0.774   0.536   3.750
   94MYC    H4017735   0.705   0.454   3.729
   94MYC    H4117736   0.876   0.497   3.739
   94MYC    C2417737   0.744   0.573   3.896
   94MYC    H4217738   0.777   0.677   3.912
   94MYC    H4317739   0.636   0.564   3.912
   94MYC    C2517740   0.815   0.476   3.992
   94MYC    H4417741   0.772   0.377   3.970
   94MYC    H4517742   0.924   0.480   3.982
   94MYC    C2617743   0.774   0.510   4.136
   94MYC    H4617744   0.778   0.618   4.150
   94MYC    H4717745   0.666   0.494   4.145
   94MYC    C2717746   0.843   0.441   4.255
   94MYC    H4817747   0.824   0.333   4.245
   94MYC    H4917748   0.952   0.457   4.254
   94MYC    C2817749   0.786   0.504   4.383
   94MYC    H5017750   0.818   0.607   4.396
   94MYC    H5117751   0.678   0.504   4.364
   94MYC    C2917752   0.805   0.424   4.513
   94MYC    H5217753   0.799   0.318   4.489
   94MYC    H5317754   0.911   0.439   4.538
   94MYC    C3017755   0.722   0.461   4.637
   94MYC    H5417756   0.724   0.570   4.648
   94MYC    H5517757   0.617   0.432   4.622
   94MYC    C3117758   0.779   0.388   4.759
   94MYC    H5617759   0.751   0.282   4.760
   94MYC    H5717760   0.888   0.380   4.768
   94MYC    C3217761   0.713   0.447   4.885
   94MYC    H5817762   0.726   0.555   4.879
   94MYC    H5917763   0.606   0.423   4.881
   94MYC    C3317764   0.772   0.383   5.012
   94MYC    H6017765   0.784   0.274   5.000
   94MYC    H6117766   0.872   0.422   5.034
   94MYC    C3417767   0.698   0.431   5.139
   94MYC    H6217768   0.715   0.538   5.154
   94MYC    H6317769   0.592   0.408   5.131
   94MYC    C3517770   0.756   0.367   5.266
   94MYC    H6417771   0.735   0.259   5.263
   94MYC    H6517772   0.864   0.381   5.271
   94MYC    C3617773   0.693   0.435   5.389
   94MYC    H6617774   0.715   0.542   5.392
   94MYC    H6717775   0.584   0.417   5.384
   94MYC    C3717776   0.743   0.365   5.517
   94MYC    H6817777   0.682   0.276   5.537
   94MYC    H6917778   0.849   0.336   5.519
   94MYC    C3817779   0.716   0.459   5.635
   94MYC    H7017780   0.779   0.549   5.629
   94MYC    H7117781   0.609   0.486   5.634
   94MYC    C3917782   0.744   0.393   5.771
   94MYC    H7217783   0.707   0.290   5.776
   94MYC    H7317784   0.852   0.375   5.782
   94MYC    C4017785   0.690   0.478   5.887
   94MYC    H7417786   0.749   0.570   5.894
   94MYC    H7517787   0.584   0.497   5.868
   94MYC    C4117788   0.709   0.402   6.019
   94MYC    H7617789   0.627   0.330   6.032
   94MYC    H7717790   0.797   0.337   6.015
   94MYC    C4217791   0.710   0.492   6.143
   94MYC    H7817792   0.800   0.555   6.138
   94MYC    H7917793   0.625   0.561   6.135
   94MYC    C4317794   0.712   0.417   6.277
   94MYC    H8017795   0.804   0.359   6.288
   94MYC    H8117796   0.623   0.354   6.285
   94MYC    H8217797   0.707   0.491   6.359
   95MYC   5H1517798   0.974   0.821   6.230
   95MYC    C8017799   0.933   0.865   6.138
   95MYC   3H1517800   0.824   0.866   6.143
   95MYC   4H1517801   0.968   0.969   6.134
   95MYC    C7917802   0.993   0.798   6.013
   95MYC   1H1517803   0.955   0.695   6.011
   95MYC   2H1517804   1.101   0.792   6.027
   95MYC    C7817805   0.965   0.881   5.887
   95MYC   9H1417806   1.025   0.972   5.888
   95MYC   0H1517807   0.859   0.908   5.876
   95MYC    C7717808   0.997   0.802   5.759
   95MYC   7H1417809   0.932   0.714   5.747
   95MYC   8H1417810   1.096   0.755   5.759
   95MYC    C7617811   0.981   0.894   5.638
   95MYC   5H1417812   1.072   0.955   5.633
   95MYC   6H1417813   0.890   0.952   5.659
   95MYC    C7517814   0.964   0.813   5.509
   95MYC   3H1417815   0.869   0.757   5.504
   95MYC   4H1417816   1.043   0.737   5.500
   95MYC    C7417817   0.964   0.910   5.390
   95MYC   1H1417818   1.043   0.984   5.405
   95MYC   2H1417819   0.871   0.968   5.393
   95MYC    C7317820   0.983   0.844   5.252
   95MYC   9H1317821   0.924   0.752   5.242
   95MYC   0H1417822   1.087   0.819   5.229
   95MYC    C7217823   0.938   0.938   5.140
   95MYC   7H1317824   1.003   1.027   5.141
   95MYC   8H1317825   0.837   0.971   5.165
   95MYC    C7117826   0.949   0.868   5.003
   95MYC   5H1317827   0.869   0.792   5.007
   95MYC   6H1317828   1.049   0.824   4.992
   95MYC    C7017829   0.913   0.973   4.897
   95MYC   3H1317830   0.982   1.056   4.916
   95MYC   4H1317831   0.810   1.008   4.904
   95MYC    C6917832   0.932   0.915   4.756
   95MYC   1H1317833   0.858   0.836   4.738
   95MYC   2H1317834   1.029   0.866   4.738
   95MYC    C6817835   0.909   1.030   4.656
   95MYC   9H1217836   0.967   1.116   4.691
   95MYC   0H1317837   0.804   1.059   4.664
   95MYC    C6717838   0.944   0.985   4.513
   95MYC   7H1217839   0.893   0.892   4.486
   95MYC   8H1217840   1.052   0.969   4.499
   95MYC    C6617841   0.907   1.089   4.406
   95MYC   5H1217842   0.973   1.175   4.421
   95MYC   6H1217843   0.808   1.130   4.428
   95MYC    C6517844   0.913   1.034   4.262
   95MYC   3H1217845   0.830   0.970   4.229
   95MYC   4H1217846   1.010   0.982   4.267
   95MYC    C6417847   0.907   1.150   4.161
   95MYC   1H1217848   0.996   1.209   4.185
   95MYC   2H1217849   0.824   1.221   4.170
   95MYC    C6317850   0.915   1.098   4.017
   95MYC   9H1117851   0.810   1.070   4.004
   95MYC   0H1217852   0.974   1.006   4.004
   95MYC    C6217853   0.949   1.209   3.916
   95MYC   7H1117854   1.053   1.241   3.930
   95MYC   8H1117855   0.884   1.295   3.937
   95MYC    C6117856   0.937   1.161   3.771
   95MYC   5H1117857   0.832   1.144   3.745
   95MYC   6H1117858   0.985   1.065   3.751
   95MYC    C6017859   1.005   1.257   3.674
   95MYC   4H1117860   1.111   1.274   3.689
   95MYC    C5817861   0.952   1.251   3.533
   95MYC   1H1117862   0.872   1.180   3.518
   95MYC    C5917863   0.930   1.375   3.616
   95MYC   2H1117864   0.981   1.467   3.589
   95MYC   3H1117865   0.825   1.385   3.644
   95MYC    C5717866   1.050   1.261   3.417
   95MYC   9H1017867   1.130   1.188   3.432
   95MYC   0H1117868   1.099   1.359   3.428
   95MYC    C5617869   0.977   1.240   3.283
   95MYC   7H1017870   0.924   1.335   3.265
   95MYC   8H1017871   0.900   1.161   3.283
   95MYC    C5517872   1.072   1.214   3.166
   95MYC   5H1017873   1.106   1.110   3.170
   95MYC   6H1017874   1.161   1.278   3.179
   95MYC    C5417875   0.999   1.242   3.034
   95MYC   3H1017876   1.003   1.350   3.014
   95MYC   4H1017877   0.892   1.216   3.038
   95MYC    C5317878   1.078   1.184   2.915
   95MYC   1H1017879   1.097   1.077   2.927
   95MYC   2H1017880   1.174   1.234   2.899
   95MYC    C5217881   0.996   1.200   2.786
   95MYC    H9917882   0.971   1.306   2.771
   95MYC   0H1017883   0.904   1.142   2.791
   95MYC    C5117884   1.085   1.162   2.666
   95MYC    H9717885   1.145   1.073   2.689
   95MYC    H9817886   1.159   1.237   2.635
   95MYC    C5017887   0.998   1.141   2.542
   95MYC    H9517888   0.968   1.240   2.504
   95MYC    H9617889   0.909   1.087   2.577
   95MYC    C4917890   1.070   1.051   2.440
   95MYC    H9317891   1.123   0.963   2.478
   95MYC    H9417892   1.145   1.110   2.387
   95MYC    C4817893   0.966   1.015   2.333
   95MYC    H9117894   0.960   1.101   2.265
   95MYC    H9217895   0.864   0.998   2.370
   95MYC    C4717896   1.001   0.900   2.237
   95MYC    H8917897   1.006   0.800   2.282
   95MYC    H9017898   1.107   0.918   2.216
   95MYC    C4617899   0.919   0.899   2.107
   95MYC    H8717900   0.908   1.001   2.068
   95MYC    H8817901   0.816   0.872   2.133
   95MYC    C4517902   0.992   0.811   2.004
   95MYC    H8517903   0.991   0.706   2.035
   95MYC    H8617904   1.098   0.839   1.998
   95MYC    C4417905   0.939   0.829   1.861
   95MYC    H8317906   1.015   0.787   1.794
   95MYC    H8417907   0.932   0.936   1.835
   95MYC    C1817908   0.803   0.772   1.822
   95MYC    H3117909   0.750   0.739   1.911
   95MYC    C1717910   0.727   0.824   1.703
   95MYC    H3017911   0.771   0.907   1.648
   95MYC    C1917912   0.787   0.685   1.700
   95MYC    H3217913   0.873   0.677   1.635
   95MYC    H3317914   0.728   0.596   1.718
   95MYC    C1617915   0.576   0.842   1.711
   95MYC    H2817916   0.524   0.763   1.765
   95MYC    H2917917   0.548   0.847   1.605
   95MYC    C1517918   0.537   0.977   1.772
   95MYC    H2617919   0.429   0.993   1.768
   95MYC    H2717920   0.570   1.060   1.707
   95MYC    C1417921   0.576   0.996   1.919
   95MYC    H2417922   0.684   0.995   1.938
   95MYC    H2517923   0.531   0.909   1.969
   95MYC    C1317924   0.527   1.125   1.987
   95MYC    H2217925   0.422   1.141   1.959
   95MYC    H2317926   0.584   1.215   1.960
   95MYC    C1217927   0.538   1.106   2.139
   95MYC    H2017928   0.635   1.055   2.148
   95MYC    H2117929   0.468   1.035   2.186
   95MYC    C1117930   0.540   1.240   2.215
   95MYC    H1817931   0.446   1.295   2.205
   95MYC    H1917932   0.627   1.298   2.182
   95MYC    C1017933   0.574   1.206   2.361
   95MYC    H1617934   0.633   1.290   2.399
   95MYC    H1717935   0.640   1.120   2.349
   95MYC     C917936   0.464   1.177   2.464
   95MYC    H1417937   0.411   1.089   2.425
   95MYC    H1517938   0.392   1.259   2.470
   95MYC     C817939   0.527   1.140   2.600
   95MYC    H1217940   0.589   1.227   2.626
   95MYC    H1317941   0.603   1.061   2.596
   95MYC     C717942   0.431   1.112   2.717
   95MYC    H1017943   0.379   1.021   2.683
   95MYC    H1117944   0.358   1.192   2.732
   95MYC     C617945   0.519   1.074   2.837
   95MYC     H817946   0.588   1.155   2.862
   95MYC     H917947   0.567   0.976   2.823
   95MYC     C517948   0.436   1.050   2.964
   95MYC     H617949   0.508   1.017   3.041
   95MYC     H717950   0.367   0.969   2.938
   95MYC     C417951   0.355   1.168   3.019
   95MYC     H417952   0.249   1.139   3.013
   95MYC     H517953   0.370   1.250   2.948
   95MYC     C217954   0.392   1.210   3.163
   95MYC     H217955   0.358   1.133   3.233
   95MYC     O317956   0.532   1.216   3.186
   95MYC     H317957   0.568   1.263   3.108
   95MYC     C117958   0.328   1.344   3.202
   95MYC     H117959   0.221   1.321   3.198
   95MYC    C8117960   0.369   1.452   3.102
   95MYC    O8217961   0.284   1.523   3.051
   95MYC    O8317962   0.502   1.470   3.086
   95MYC   6H1517963   0.503   1.544   3.023
   95MYC    C2017964   0.353   1.386   3.348
   95MYC    H3417965   0.453   1.430   3.347
   95MYC    H3517966   0.277   1.462   3.370
   95MYC    C2117967   0.354   1.281   3.460
   95MYC    H3617968   0.256   1.232   3.474
   95MYC    H3717969   0.424   1.200   3.436
   95MYC    C2217970   0.401   1.337   3.595
   95MYC    H3817971   0.501   1.380   3.579
   95MYC    H3917972   0.331   1.416   3.624
   95MYC    C2317973   0.412   1.237   3.712
   95MYC    H4017974   0.309   1.209   3.736
   95MYC    H4117975   0.475   1.153   3.679
   95MYC    C2417976   0.470   1.296   3.842
   95MYC    H4217977   0.578   1.314   3.834
   95MYC    H4317978   0.418   1.389   3.870
   95MYC    C2517979   0.443   1.205   3.962
   95MYC    H4417980   0.334   1.194   3.974
   95MYC    H4517981   0.484   1.104   3.948
   95MYC    C2617982   0.508   1.259   4.090
   95MYC    H4617983   0.617   1.255   4.078
   95MYC    H4717984   0.479   1.365   4.098
   95MYC    C2717985   0.469   1.192   4.223
   95MYC    H4817986   0.361   1.174   4.220
   95MYC    H4917987   0.510   1.090   4.228
   95MYC    C2817988   0.495   1.270   4.353
   95MYC    H5017989   0.601   1.299   4.354
   95MYC    H5117990   0.434   1.361   4.358
   95MYC    C2917991   0.475   1.176   4.473
   95MYC    H5217992   0.386   1.115   4.454
   95MYC    H5317993   0.561   1.108   4.473
   95MYC    C3017994   0.470   1.259   4.602
   95MYC    H5417995   0.561   1.318   4.615
   95MYC    H5517996   0.385   1.327   4.613
   95MYC    C3117997   0.457   1.168   4.726
   95MYC    H5617998   0.355   1.130   4.718
   95MYC    H5717999   0.528   1.086   4.713
   95MYC    C3218000   0.480   1.245   4.858
   95MYC    H5818001   0.584   1.280   4.860
   95MYC    H5918002   0.415   1.333   4.865
   95MYC    C3318003   0.456   1.163   4.986
   95MYC    H6018004   0.352   1.129   4.998
   95MYC    H6118005   0.522   1.076   4.985
   95MYC    C3418006   0.493   1.239   5.114
   95MYC    H6218007   0.594   1.282   5.114
   95MYC    H6318008   0.428   1.328   5.119
   95MYC    C3518009   0.472   1.159   5.243
   95MYC    H6418010   0.374   1.110   5.233
   95MYC    H6518011   0.550   1.083   5.258
   95MYC    C3618012   0.487   1.249   5.367
   95MYC    H6618013   0.579   1.309   5.363
   95MYC    H6718014   0.397   1.307   5.387
   95MYC    C3718015   0.507   1.167   5.496
   95MYC    H6818016   0.437   1.083   5.492
   95MYC    H6918017   0.609   1.126   5.492
   95MYC    C3818018   0.481   1.251   5.622
   95MYC    H7018019   0.532   1.348   5.614
   95MYC    H7118020   0.372   1.254   5.620
   95MYC    C3918021   0.538   1.172   5.741
   95MYC    H7218022   0.495   1.072   5.743
   95MYC    H7318023   0.647   1.170   5.725
   95MYC    C4018024   0.503   1.239   5.875
   95MYC    H7418025   0.514   1.348   5.862
   95MYC    H7518026   0.397   1.220   5.897
   95MYC    C4118027   0.575   1.193   6.002
   95MYC    H7618028   0.600   1.086   5.993
   95MYC    H7718029   0.672   1.245   6.003
   95MYC    C4218030   0.493   1.219   6.130
   95MYC    H7818031   0.461   1.323   6.133
   95MYC    H7918032   0.405   1.153   6.125
   95MYC    C4318033   0.567   1.183   6.259
   95MYC    H8018034   0.500   1.198   6.345
   95MYC    H8118035   0.643   1.262   6.265
   95MYC    H8218036   0.608   1.081   6.260
   96MYC   5H1518037   0.623   1.795   6.287
   96MYC    C8018038   0.639   1.858   6.198
   96MYC   3H1518039   0.550   1.916   6.172
   96MYC   4H1518040   0.726   1.921   6.220
   96MYC    C7918041   0.671   1.766   6.079
   96MYC   1H1518042   0.604   1.680   6.078
   96MYC   2H1518043   0.771   1.723   6.092
   96MYC    C7818044   0.654   1.834   5.942
   96MYC   9H1418045   0.743   1.896   5.930
   96MYC   0H1518046   0.567   1.900   5.933
   96MYC    C7718047   0.651   1.722   5.837
   96MYC   7H1418048   0.556   1.669   5.843
   96MYC   8H1418049   0.734   1.657   5.869
   96MYC    C7618050   0.674   1.776   5.694
   96MYC   5H1418051   0.773   1.823   5.696
   96MYC   6H1418052   0.604   1.859   5.679
   96MYC    C7518053   0.674   1.676   5.577
   96MYC   3H1418054   0.580   1.620   5.584
   96MYC   4H1418055   0.751   1.598   5.579
   96MYC    C7418056   0.678   1.753   5.443
   96MYC   1H1418057   0.781   1.790   5.440
   96MYC   2H1418058   0.603   1.832   5.454
   96MYC    C7318059   0.653   1.660   5.323
   96MYC   9H1318060   0.549   1.625   5.317
   96MYC   0H1418061   0.710   1.567   5.333
   96MYC    C7218062   0.696   1.732   5.193
   96MYC   7H1318063   0.806   1.730   5.188
   96MYC   8H1318064   0.656   1.834   5.195
   96MYC    C7118065   0.653   1.657   5.066
   96MYC   5H1318066   0.547   1.628   5.068
   96MYC   6H1318067   0.696   1.558   5.049
   96MYC    C7018068   0.679   1.744   4.941
   96MYC   3H1318069   0.782   1.782   4.934
   96MYC   4H1318070   0.608   1.827   4.949
   96MYC    C6918071   0.645   1.665   4.814
   96MYC   1H1318072   0.538   1.641   4.817
   96MYC   2H1318073   0.709   1.576   4.810
   96MYC    C6818074   0.672   1.748   4.687
   96MYC   9H1218075   0.780   1.767   4.681
   96MYC   0H1318076   0.629   1.849   4.687
   96MYC    C6718077   0.639   1.676   4.555
   96MYC   7H1218078   0.530   1.689   4.550
   96MYC   8H1218079   0.659   1.569   4.562
   96MYC    C6618080   0.705   1.733   4.428
   96MYC   5H1218081   0.800   1.681   4.409
   96MYC   6H1218082   0.722   1.841   4.430
   96MYC    C6518083   0.624   1.686   4.306
   96MYC   3H1218084   0.521   1.723   4.310
   96MYC   4H1218085   0.613   1.577   4.307
   96MYC    C6418086   0.699   1.733   4.179
   96MYC   1H1218087   0.797   1.686   4.191
   96MYC   2H1218088   0.707   1.842   4.175
   96MYC    C6318089   0.635   1.680   4.050
   96MYC   9H1118090   0.527   1.698   4.052
   96MYC   0H1218091   0.636   1.570   4.041
   96MYC    C6218092   0.704   1.741   3.927
   96MYC   7H1118093   0.813   1.735   3.935
   96MYC   8H1118094   0.682   1.849   3.927
   96MYC    C6118095   0.648   1.676   3.799
   96MYC   5H1118096   0.539   1.678   3.801
   96MYC   6H1118097   0.661   1.568   3.813
   96MYC    C6018098   0.712   1.725   3.669
   96MYC   4H1118099   0.819   1.705   3.674
   96MYC    C5818100   0.640   1.709   3.538
   96MYC   1H1118101   0.534   1.684   3.536
   96MYC    C5918102   0.665   1.847   3.595
   96MYC   2H1118103   0.739   1.908   3.544
   96MYC   3H1118104   0.578   1.896   3.638
   96MYC    C5718105   0.714   1.629   3.432
   96MYC   9H1018106   0.679   1.525   3.436
   96MYC   0H1118107   0.821   1.632   3.455
   96MYC    C5618108   0.688   1.696   3.296
   96MYC   7H1018109   0.711   1.803   3.297
   96MYC   8H1018110   0.580   1.685   3.276
   96MYC    C5518111   0.763   1.619   3.187
   96MYC   5H1018112   0.742   1.511   3.189
   96MYC   6H1018113   0.868   1.636   3.217
   96MYC    C5418114   0.732   1.674   3.047
   96MYC   3H1018115   0.770   1.776   3.052
   96MYC   4H1018116   0.624   1.685   3.031
   96MYC    C5318117   0.785   1.594   2.927
   96MYC   1H1018118   0.719   1.508   2.912
   96MYC   2H1018119   0.883   1.551   2.950
   96MYC    C5218120   0.790   1.669   2.793
   96MYC    H9918121   0.874   1.738   2.809
   96MYC   0H1018122   0.702   1.728   2.762
   96MYC    C5118123   0.824   1.575   2.676
   96MYC    H9718124   0.750   1.494   2.683
   96MYC    H9818125   0.927   1.537   2.686
   96MYC    C5018126   0.803   1.632   2.535
   96MYC    H9518127   0.847   1.732   2.523
   96MYC    H9618128   0.697   1.653   2.518
   96MYC    C4918129   0.842   1.540   2.418
   96MYC    H9318130   0.793   1.443   2.436
   96MYC    H9418131   0.951   1.537   2.420
   96MYC    C4818132   0.791   1.605   2.288
   96MYC    H9118133   0.808   1.713   2.286
   96MYC    H9218134   0.683   1.587   2.286
   96MYC    C4718135   0.850   1.551   2.157
   96MYC    H8918136   0.836   1.442   2.146
   96MYC    H9018137   0.959   1.563   2.159
   96MYC    C4618138   0.800   1.624   2.031
   96MYC    H8718139   0.864   1.711   2.010
   96MYC    H8818140   0.699   1.661   2.053
   96MYC    C4518141   0.800   1.538   1.904
   96MYC    H8518142   0.736   1.451   1.918
   96MYC    H8618143   0.901   1.496   1.888
   96MYC    C4418144   0.769   1.616   1.775
   96MYC    H8318145   0.761   1.553   1.685
   96MYC    H8418146   0.851   1.683   1.747
   96MYC    C1818147   0.645   1.703   1.785
   96MYC    H3118148   0.576   1.665   1.860
   96MYC    C1718149   0.655   1.853   1.766
   96MYC    H3018150   0.752   1.893   1.740
   96MYC    C1918151   0.589   1.767   1.660
   96MYC    H3218152   0.639   1.756   1.564
   96MYC    H3318153   0.481   1.770   1.656
   96MYC    C1618154   0.568   1.960   1.831
   96MYC    H2818155   0.489   1.923   1.897
   96MYC    H2918156   0.512   2.008   1.750
   96MYC    C1518157   0.656   2.067   1.898
   96MYC    H2618158   0.599   2.160   1.911
   96MYC    H2718159   0.739   2.094   1.831
   96MYC    C1418160   0.703   2.037   2.042
   96MYC    H2418161   0.763   1.945   2.047
   96MYC    H2518162   0.618   2.018   2.109
   96MYC    C1318163   0.783   2.151   2.107
   96MYC    H2218164   0.722   2.242   2.108
   96MYC    H2318165   0.869   2.176   2.044
   96MYC    C1218166   0.828   2.128   2.252
   96MYC    H2018167   0.868   2.026   2.263
   96MYC    H2118168   0.734   2.132   2.308
   96MYC    C1118169   0.919   2.239   2.306
   96MYC    H1818170   0.867   2.334   2.288
   96MYC    H1918171   1.007   2.245   2.241
   96MYC    C1018172   0.968   2.246   2.452
   96MYC    H1618173   0.911   2.332   2.490
   96MYC    H1718174   1.075   2.267   2.462
   96MYC     C918175   0.944   2.116   2.531
   96MYC    H1418176   0.965   2.027   2.470
   96MYC    H1518177   0.836   2.117   2.551
   96MYC     C818178   1.026   2.114   2.662
   96MYC    H1218179   1.070   2.212   2.683
   96MYC    H1318180   1.114   2.052   2.645
   96MYC     C718181   0.954   2.051   2.783
   96MYC    H1018182   1.031   2.012   2.850
   96MYC    H1118183   0.886   1.971   2.752
   96MYC     C618184   0.874   2.156   2.861
   96MYC     H818185   0.799   2.193   2.790
   96MYC     H918186   0.937   2.239   2.894
   96MYC     C518187   0.781   2.102   2.972
   96MYC     H618188   0.844   2.051   3.046
   96MYC     H718189   0.712   2.026   2.935
   96MYC     C418190   0.692   2.213   3.029
   96MYC     H418191   0.597   2.159   3.038
   96MYC     H518192   0.684   2.300   2.963
   96MYC     C218193   0.730   2.253   3.173
   96MYC     H218194   0.763   2.165   3.229
   96MYC     O318195   0.837   2.346   3.162
   96MYC     H318196   0.867   2.356   3.070
   96MYC     C118197   0.619   2.315   3.259
   96MYC     H118198   0.540   2.239   3.269
   96MYC    C8118199   0.558   2.434   3.185
   96MYC    O8218200   0.559   2.549   3.226
   96MYC    O8318201   0.466   2.399   3.093
   96MYC   6H1518202   0.415   2.479   3.075
   96MYC    C2018203   0.666   2.353   3.400
   96MYC    H3418204   0.761   2.407   3.396
   96MYC    H3518205   0.598   2.423   3.450
   96MYC    C2118206   0.671   2.239   3.504
   96MYC    H3618207   0.573   2.197   3.526
   96MYC    H3718208   0.731   2.154   3.470
   96MYC    C2218209   0.735   2.290   3.634
   96MYC    H3818210   0.839   2.315   3.613
   96MYC    H3918211   0.678   2.375   3.676
   96MYC    C2318212   0.731   2.187   3.748
   96MYC    H4018213   0.624   2.175   3.768
   96MYC    H4118214   0.775   2.093   3.712
   96MYC    C2418215   0.801   2.233   3.877
   96MYC    H4218216   0.905   2.199   3.875
   96MYC    H4318217   0.805   2.343   3.875
   96MYC    C2518218   0.734   2.190   4.008
   96MYC    H4418219   0.632   2.229   3.999
   96MYC    H4518220   0.727   2.081   3.999
   96MYC    C2618221   0.806   2.247   4.131
   96MYC    H4618222   0.911   2.217   4.118
   96MYC    H4718223   0.797   2.356   4.131
   96MYC    C2718224   0.762   2.183   4.263
   96MYC    H4818225   0.655   2.210   4.265
   96MYC    H4918226   0.774   2.074   4.256
   96MYC    C2818227   0.825   2.242   4.390
   96MYC    H5018228   0.933   2.223   4.398
   96MYC    H5118229   0.822   2.351   4.382
   96MYC    C2918230   0.760   2.185   4.517
   96MYC    H5218231   0.651   2.197   4.509
   96MYC    H5318232   0.774   2.076   4.519
   96MYC    C3018233   0.827   2.232   4.647
   96MYC    H5418234   0.935   2.215   4.642
   96MYC    H5518235   0.808   2.340   4.647
   96MYC    C3118236   0.773   2.168   4.776
   96MYC    H5618237   0.666   2.190   4.774
   96MYC    H5718238   0.797   2.061   4.781
   96MYC    C3218239   0.848   2.227   4.897
   96MYC    H5818240   0.956   2.207   4.893
   96MYC    H5918241   0.851   2.337   4.902
   96MYC    C3318242   0.770   2.185   5.023
   96MYC    H6018243   0.663   2.207   5.020
   96MYC    H6118244   0.778   2.075   5.023
   96MYC    C3418245   0.822   2.246   5.154
   96MYC    H6218246   0.929   2.220   5.162
   96MYC    H6318247   0.805   2.354   5.147
   96MYC    C3518248   0.734   2.189   5.267
   96MYC    H6418249   0.631   2.220   5.247
   96MYC    H6518250   0.728   2.080   5.271
   96MYC    C3618251   0.787   2.239   5.402
   96MYC    H6618252   0.886   2.202   5.433
   96MYC    H6718253   0.778   2.348   5.404
   96MYC    C3718254   0.701   2.185   5.518
   96MYC    H6818255   0.597   2.218   5.507
   96MYC    H6918256   0.710   2.076   5.526
   96MYC    C3818257   0.758   2.236   5.652
   96MYC    H7018258   0.860   2.199   5.667
   96MYC    H7118259   0.766   2.345   5.645
   96MYC    C3918260   0.673   2.213   5.778
   96MYC    H7218261   0.585   2.277   5.770
   96MYC    H7318262   0.632   2.111   5.782
   96MYC    C4018263   0.750   2.244   5.907
   96MYC    H7418264   0.826   2.167   5.927
   96MYC    H7518265   0.806   2.339   5.902
   96MYC    C4118266   0.658   2.248   6.030
   96MYC    H7618267   0.597   2.340   6.035
   96MYC    H7718268   0.578   2.174   6.023
   96MYC    C4218269   0.732   2.241   6.165
   96MYC    H7818270   0.788   2.147   6.170
   96MYC    H7918271   0.809   2.319   6.161
   96MYC    C4318272   0.645   2.266   6.289
   96MYC    H8018273   0.694   2.245   6.385
   96MYC    H8118274   0.552   2.206   6.282
   96MYC    H8218275   0.618   2.372   6.296
   97MYC   5H1518276   0.733   2.981   6.143
   97MYC    C8018277   0.773   3.019   6.048
   97MYC   3H1518278   0.774   3.128   6.049
   97MYC   4H1518279   0.874   2.982   6.027
   97MYC    C7918280   0.690   2.977   5.925
   97MYC   1H1518281   0.589   3.015   5.948
   97MYC   2H1518282   0.672   2.868   5.923
   97MYC    C7818283   0.758   3.016   5.794
   97MYC   9H1418284   0.854   2.964   5.782
   97MYC   0H1518285   0.794   3.120   5.798
   97MYC    C7718286   0.673   2.982   5.670
   97MYC   7H1418287   0.593   3.056   5.665
   97MYC   8H1418288   0.628   2.883   5.683
   97MYC    C7618289   0.739   2.989   5.531
   97MYC   5H1418290   0.803   2.903   5.513
   97MYC   6H1418291   0.799   3.081   5.531
   97MYC    C7518292   0.630   2.989   5.422
   97MYC   3H1418293   0.567   3.076   5.445
   97MYC   4H1418294   0.565   2.900   5.430
   97MYC    C7418295   0.691   2.994   5.282
   97MYC   1H1418296   0.726   2.893   5.255
   97MYC   2H1418297   0.789   3.044   5.287
   97MYC    C7318298   0.598   3.047   5.171
   97MYC   9H1318299   0.595   3.156   5.182
   97MYC   0H1418300   0.498   3.002   5.181
   97MYC    C7218301   0.654   3.015   5.032
   97MYC   7H1318302   0.645   2.907   5.013
   97MYC   8H1318303   0.762   3.036   5.022
   97MYC    C7118304   0.575   3.096   4.928
   97MYC   5H1318305   0.624   3.194   4.935
   97MYC   6H1318306   0.469   3.095   4.958
   97MYC    C7018307   0.589   3.055   4.781
   97MYC   3H1318308   0.580   2.946   4.782
   97MYC   4H1318309   0.687   3.076   4.735
   97MYC    C6918310   0.481   3.119   4.692
   97MYC   1H1318311   0.505   3.224   4.672
   97MYC   2H1318312   0.383   3.119   4.741
   97MYC    C6818313   0.479   3.024   4.571
   97MYC   9H1218314   0.420   2.936   4.598
   97MYC   0H1318315   0.579   2.988   4.544
   97MYC    C6718316   0.430   3.094   4.443
   97MYC   7H1218317   0.484   3.188   4.427
   97MYC   8H1218318   0.325   3.117   4.465
   97MYC    C6618319   0.441   3.000   4.322
   97MYC   5H1218320   0.338   2.965   4.309
   97MYC   6H1218321   0.499   2.909   4.342
   97MYC    C6518322   0.489   3.073   4.195
   97MYC   3H1218323   0.587   3.123   4.197
   97MYC   4H1218324   0.417   3.146   4.157
   97MYC    C6418325   0.502   2.977   4.076
   97MYC   1H1218326   0.415   2.911   4.072
   97MYC   2H1218327   0.592   2.916   4.085
   97MYC    C6318328   0.518   3.048   3.940
   97MYC   9H1118329   0.561   3.148   3.947
   97MYC   0H1218330   0.416   3.058   3.900
   97MYC    C6218331   0.592   2.970   3.830
   97MYC   7H1118332   0.528   2.885   3.803
   97MYC   8H1118333   0.686   2.928   3.866
   97MYC    C6118334   0.597   3.056   3.702
   97MYC   5H1118335   0.640   3.156   3.706
   97MYC   6H1118336   0.490   3.069   3.682
   97MYC    C6018337   0.653   2.981   3.582
   97MYC   4H1118338   0.612   2.881   3.570
   97MYC    C5818339   0.676   3.050   3.450
   97MYC   1H1118340   0.681   3.158   3.451
   97MYC    C5918341   0.793   2.992   3.526
   97MYC   2H1118342   0.838   2.900   3.490
   97MYC   3H1118343   0.856   3.071   3.566
   97MYC    C5718344   0.632   2.984   3.320
   97MYC   9H1018345   0.527   2.953   3.324
   97MYC   0H1118346   0.670   2.882   3.306
   97MYC    C5618347   0.654   3.070   3.195
   97MYC   7H1018348   0.761   3.091   3.181
   97MYC   8H1018349   0.604   3.166   3.211
   97MYC    C5518350   0.602   3.019   3.059
   97MYC   5H1018351   0.496   2.992   3.066
   97MYC   6H1018352   0.652   2.928   3.026
   97MYC    C5418353   0.620   3.123   2.947
   97MYC   3H1018354   0.726   3.146   2.933
   97MYC   4H1018355   0.579   3.223   2.967
   97MYC    C5318356   0.564   3.091   2.808
   97MYC   1H1018357   0.456   3.084   2.823
   97MYC   2H1018358   0.590   2.988   2.778
   97MYC    C5218359   0.586   3.196   2.697
   97MYC    H9918360   0.694   3.194   2.678
   97MYC   0H1018361   0.548   3.295   2.724
   97MYC    C5118362   0.532   3.152   2.561
   97MYC    H9718363   0.436   3.197   2.533
   97MYC    H9818364   0.514   3.043   2.563
   97MYC    C5018365   0.627   3.198   2.450
   97MYC    H9518366   0.721   3.144   2.470
   97MYC    H9618367   0.641   3.307   2.454
   97MYC    C4918368   0.595   3.163   2.303
   97MYC    H9318369   0.490   3.188   2.285
   97MYC    H9418370   0.601   3.053   2.308
   97MYC    C4818371   0.688   3.221   2.196
   97MYC    H9118372   0.781   3.168   2.220
   97MYC    H9218373   0.702   3.328   2.215
   97MYC    C4718374   0.641   3.196   2.052
   97MYC    H8918375   0.693   3.269   1.989
   97MYC    H9018376   0.533   3.210   2.035
   97MYC    C4618377   0.676   3.056   2.000
   97MYC    H8718378   0.624   2.984   2.065
   97MYC    H8818379   0.785   3.050   2.010
   97MYC    C4518380   0.632   3.027   1.856
   97MYC    H8518381   0.663   3.107   1.787
   97MYC    H8618382   0.523   3.034   1.868
   97MYC    C4418383   0.692   2.901   1.792
   97MYC    H8318384   0.619   2.869   1.717
   97MYC    H8418385   0.697   2.818   1.863
   97MYC    C1818386   0.835   2.919   1.742
   97MYC    H3118387   0.910   2.945   1.816
   97MYC    C1718388   0.892   2.838   1.629
   97MYC    H3018389   0.831   2.760   1.584
   97MYC    C1918390   0.854   2.982   1.606
   97MYC    H3218391   0.758   2.999   1.558
   97MYC    H3318392   0.932   3.055   1.584
   97MYC    C1618393   1.041   2.807   1.628
   97MYC    H2818394   1.103   2.860   1.701
   97MYC    H2918395   1.071   2.840   1.527
   97MYC    C1518396   1.061   2.654   1.635
   97MYC    H2618397   1.166   2.637   1.610
   97MYC    H2718398   0.995   2.597   1.568
   97MYC    C1418399   1.045   2.593   1.775
   97MYC    H2418400   0.991   2.497   1.778
   97MYC    H2518401   0.984   2.665   1.830
   97MYC    C1318402   1.177   2.582   1.855
   97MYC    H2218403   1.246   2.666   1.850
   97MYC    H2318404   1.236   2.504   1.805
   97MYC    C1218405   1.158   2.529   1.998
   97MYC    H2018406   1.108   2.432   1.999
   97MYC    H2118407   1.094   2.599   2.052
   97MYC    C1118408   1.294   2.532   2.071
   97MYC    H1818409   1.336   2.633   2.071
   97MYC    H1918410   1.358   2.462   2.016
   97MYC    C1018411   1.280   2.492   2.218
   97MYC    H1618412   1.374   2.486   2.274
   97MYC    H1718413   1.239   2.390   2.218
   97MYC     C918414   1.181   2.577   2.299
   97MYC    H1418415   1.080   2.537   2.282
   97MYC    H1518416   1.177   2.681   2.264
   97MYC     C818417   1.207   2.574   2.451
   97MYC    H1218418   1.306   2.606   2.486
   97MYC    H1318419   1.208   2.468   2.478
   97MYC     C718420   1.105   2.661   2.526
   97MYC    H1018421   1.005   2.620   2.505
   97MYC    H1118422   1.107   2.760   2.479
   97MYC     C618423   1.137   2.664   2.676
   97MYC     H818424   1.225   2.726   2.695
   97MYC     H918425   1.161   2.568   2.724
   97MYC     C518426   1.020   2.713   2.763
   97MYC     H618427   0.969   2.620   2.791
   97MYC     H718428   0.952   2.777   2.705
   97MYC     C418429   1.064   2.788   2.890
   97MYC     H418430   1.020   2.888   2.883
   97MYC     H518431   1.172   2.804   2.893
   97MYC     C218432   1.030   2.720   3.024
   97MYC     H218433   1.031   2.804   3.095
   97MYC     O318434   0.896   2.674   3.027
   97MYC     H318435   0.843   2.754   3.011
   97MYC     C118436   1.138   2.624   3.076
   97MYC     H118437   1.231   2.680   3.091
   97MYC    C8118438   1.171   2.506   2.984
   97MYC    O8218439   1.096   2.413   2.958
   97MYC    O8318440   1.293   2.519   2.930
   97MYC   6H1518441   1.312   2.439   2.878
   97MYC    C2018442   1.117   2.562   3.215
   97MYC    H3418443   1.028   2.498   3.220
   97MYC    H3518444   1.199   2.491   3.232
   97MYC    C2118445   1.121   2.656   3.337
   97MYC    H3618446   1.227   2.680   3.353
   97MYC    H3718447   1.065   2.748   3.319
   97MYC    C2218448   1.067   2.595   3.468
   97MYC    H3818449   0.958   2.611   3.471
   97MYC    H3918450   1.070   2.485   3.470
   97MYC    C2318451   1.131   2.648   3.597
   97MYC    H4018452   1.239   2.627   3.595
   97MYC    H4118453   1.115   2.756   3.602
   97MYC    C2418454   1.076   2.581   3.724
   97MYC    H4218455   0.967   2.592   3.720
   97MYC    H4318456   1.095   2.474   3.710
   97MYC    C2518457   1.138   2.633   3.855
   97MYC    H4418458   1.244   2.604   3.847
   97MYC    H4518459   1.121   2.741   3.851
   97MYC    C2618460   1.071   2.576   3.981
   97MYC    H4618461   0.973   2.624   3.988
   97MYC    H4718462   1.066   2.467   3.966
   97MYC    C2718463   1.140   2.603   4.116
   97MYC    H4818464   1.248   2.592   4.102
   97MYC    H4918465   1.123   2.709   4.138
   97MYC    C2818466   1.082   2.514   4.228
   97MYC    H5018467   0.972   2.511   4.227
   97MYC    H5118468   1.122   2.413   4.214
   97MYC    C2918469   1.139   2.566   4.361
   97MYC    H5218470   1.248   2.560   4.358
   97MYC    H5318471   1.116   2.671   4.380
   97MYC    C3018472   1.083   2.495   4.486
   97MYC    H5418473   0.974   2.506   4.483
   97MYC    H5518474   1.104   2.389   4.471
   97MYC    C3118475   1.145   2.540   4.619
   97MYC    H5618476   1.251   2.514   4.614
   97MYC    H5718477   1.144   2.650   4.630
   97MYC    C3218478   1.086   2.481   4.749
   97MYC    H5818479   0.988   2.529   4.755
   97MYC    H5918480   1.055   2.376   4.738
   97MYC    C3318481   1.171   2.501   4.875
   97MYC    H6018482   1.266   2.447   4.869
   97MYC    H6118483   1.193   2.608   4.889
   97MYC    C3418484   1.095   2.456   5.001
   97MYC    H6218485   0.994   2.498   4.998
   97MYC    H6318486   1.079   2.348   5.010
   97MYC    C3518487   1.162   2.504   5.131
   97MYC    H6418488   1.255   2.449   5.150
   97MYC    H6518489   1.186   2.610   5.118
   97MYC    C3618490   1.077   2.476   5.256
   97MYC    H6618491   0.978   2.520   5.244
   97MYC    H6718492   1.064   2.368   5.273
   97MYC    C3718493   1.144   2.528   5.384
   97MYC    H6818494   1.252   2.514   5.383
   97MYC    H6918495   1.130   2.637   5.391
   97MYC    C3818496   1.088   2.467   5.514
   97MYC    H7018497   0.979   2.467   5.502
   97MYC    H7118498   1.124   2.364   5.524
   97MYC    C3918499   1.130   2.546   5.639
   97MYC    H7218500   1.237   2.571   5.636
   97MYC    H7318501   1.077   2.640   5.653
   97MYC    C4018502   1.095   2.460   5.761
   97MYC    H7418503   0.989   2.433   5.769
   97MYC    H7518504   1.150   2.365   5.765
   97MYC    C4118505   1.122   2.537   5.892
   97MYC    H7618506   1.222   2.580   5.881
   97MYC    H7718507   1.055   2.622   5.908
   97MYC    C4218508   1.117   2.452   6.020
   97MYC    H7818509   1.016   2.408   6.027
   97MYC    H7918510   1.186   2.367   6.008
   97MYC    C4318511   1.138   2.521   6.155
   97MYC    H8018512   1.127   2.456   6.243
   97MYC    H8118513   1.064   2.599   6.176
   97MYC    H8218514   1.243   2.553   6.151
   98MYC   5H1518515   0.500   3.895   6.265
   98MYC    C8018516   0.559   3.847   6.187
   98MYC   3H1518517   0.647   3.905   6.156
   98MYC   4H1518518   0.605   3.760   6.235
   98MYC    C7918519   0.467   3.812   6.069
   98MYC   1H1518520   0.406   3.895   6.032
   98MYC   2H1518521   0.391   3.742   6.108
   98MYC    C7818522   0.547   3.755   5.950
   98MYC   9H1418523   0.593   3.660   5.977
   98MYC   0H1518524   0.635   3.819   5.934
   98MYC    C7718525   0.449   3.734   5.833
   98MYC   7H1418526   0.419   3.834   5.801
   98MYC   8H1418527   0.356   3.686   5.866
   98MYC    C7618528   0.516   3.663   5.714
   98MYC   5H1418529   0.532   3.557   5.738
   98MYC   6H1418530   0.617   3.704   5.702
   98MYC    C7518531   0.422   3.662   5.592
   98MYC   3H1418532   0.378   3.762   5.583
   98MYC   4H1418533   0.335   3.604   5.623
   98MYC    C7418534   0.500   3.613   5.469
   98MYC   1H1418535   0.516   3.506   5.488
   98MYC   2H1418536   0.596   3.664   5.460
   98MYC    C7318537   0.414   3.623   5.341
   98MYC   9H1318538   0.397   3.730   5.319
   98MYC   0H1418539   0.315   3.579   5.356
   98MYC    C7218540   0.468   3.548   5.219
   98MYC   7H1318541   0.460   3.439   5.225
   98MYC   8H1318542   0.577   3.555   5.209
   98MYC    C7118543   0.399   3.599   5.091
   98MYC   5H1318544   0.414   3.705   5.070
   98MYC   6H1318545   0.290   3.593   5.098
   98MYC    C7018546   0.444   3.517   4.968
   98MYC   3H1318547   0.434   3.411   4.993
   98MYC   4H1318548   0.551   3.535   4.958
   98MYC    C6918549   0.364   3.567   4.846
   98MYC   1H1318550   0.363   3.674   4.823
   98MYC   2H1318551   0.262   3.529   4.860
   98MYC    C6818552   0.411   3.488   4.723
   98MYC   9H1218553   0.390   3.381   4.734
   98MYC   0H1318554   0.521   3.487   4.724
   98MYC    C6718555   0.368   3.540   4.585
   98MYC   7H1218556   0.368   3.650   4.587
   98MYC   8H1218557   0.265   3.514   4.561
   98MYC    C6618558   0.463   3.507   4.468
   98MYC   5H1218559   0.461   3.398   4.457
   98MYC   6H1218560   0.569   3.522   4.489
   98MYC    C6518561   0.419   3.571   4.335
   98MYC   3H1218562   0.446   3.677   4.340
   98MYC   4H1218563   0.309   3.565   4.328
   98MYC    C6418564   0.484   3.502   4.214
   98MYC   1H1218565   0.444   3.401   4.204
   98MYC   2H1218566   0.593   3.506   4.210
   98MYC    C6318567   0.424   3.568   4.088
   98MYC   9H1118568   0.444   3.675   4.100
   98MYC   0H1218569   0.314   3.564   4.089
   98MYC    C6218570   0.465   3.511   3.951
   98MYC   7H1118571   0.423   3.409   3.953
   98MYC   8H1118572   0.573   3.508   3.932
   98MYC    C6118573   0.392   3.596   3.846
   98MYC   5H1118574   0.427   3.700   3.856
   98MYC   6H1118575   0.288   3.579   3.877
   98MYC    C6018576   0.405   3.550   3.701
   98MYC   4H1118577   0.304   3.550   3.661
   98MYC    C5818578   0.524   3.594   3.620
   98MYC   1H1118579   0.599   3.653   3.671
   98MYC    C5918580   0.508   3.449   3.658
   98MYC   2H1118581   0.483   3.373   3.583
   98MYC   3H1118582   0.588   3.419   3.724
   98MYC    C5718583   0.487   3.653   3.485
   98MYC   9H1018584   0.520   3.758   3.487
   98MYC   0H1118585   0.380   3.655   3.462
   98MYC    C5618586   0.570   3.587   3.373
   98MYC   7H1018587   0.556   3.478   3.379
   98MYC   8H1018588   0.676   3.609   3.390
   98MYC    C5518589   0.522   3.632   3.234
   98MYC   5H1018590   0.491   3.737   3.246
   98MYC   6H1018591   0.436   3.573   3.200
   98MYC    C5418592   0.613   3.624   3.110
   98MYC   3H1018593   0.638   3.520   3.086
   98MYC   4H1018594   0.708   3.677   3.128
   98MYC    C5318595   0.556   3.697   2.988
   98MYC   1H1018596   0.543   3.804   3.007
   98MYC   2H1018597   0.459   3.650   2.968
   98MYC    C5218598   0.629   3.660   2.858
   98MYC    H9918599   0.637   3.550   2.857
   98MYC   0H1018600   0.735   3.685   2.866
   98MYC    C5118601   0.563   3.718   2.731
   98MYC    H9718602   0.563   3.828   2.740
   98MYC    H9818603   0.459   3.686   2.727
   98MYC    C5018604   0.634   3.674   2.602
   98MYC    H9518605   0.648   3.565   2.600
   98MYC    H9618606   0.731   3.725   2.607
   98MYC    C4918607   0.565   3.734   2.478
   98MYC    H9318608   0.585   3.841   2.468
   98MYC    H9418609   0.455   3.731   2.478
   98MYC    C4818610   0.603   3.659   2.349
   98MYC    H9118611   0.572   3.555   2.362
   98MYC    H9218612   0.712   3.672   2.337
   98MYC    C4718613   0.541   3.709   2.218
   98MYC    H8918614   0.565   3.816   2.213
   98MYC    H9018615   0.431   3.701   2.220
   98MYC    C4618616   0.601   3.645   2.092
   98MYC    H8718617   0.609   3.536   2.091
   98MYC    H8818618   0.706   3.676   2.085
   98MYC    C4518619   0.514   3.682   1.971
   98MYC    H8518620   0.516   3.789   1.950
   98MYC    H8618621   0.412   3.648   1.995
   98MYC    C4418622   0.544   3.610   1.838
   98MYC    H8318623   0.474   3.642   1.759
   98MYC    H8418624   0.530   3.501   1.848
   98MYC    C1818625   0.683   3.629   1.781
   98MYC    H3118626   0.734   3.719   1.816
   98MYC    C1718627   0.760   3.521   1.709
   98MYC    H3018628   0.713   3.424   1.696
   98MYC    C1918629   0.689   3.628   1.630
   98MYC    H3218630   0.608   3.583   1.574
   98MYC    H3318631   0.755   3.700   1.583
   98MYC    C1618632   0.911   3.509   1.718
   98MYC    H2818633   0.947   3.610   1.743
   98MYC    H2918634   0.945   3.496   1.615
   98MYC    C1518635   0.967   3.407   1.819
   98MYC    H2618636   1.072   3.385   1.796
   98MYC    H2718637   0.922   3.310   1.795
   98MYC    C1418638   0.953   3.451   1.966
   98MYC    H2418639   0.851   3.451   2.007
   98MYC    H2518640   0.998   3.551   1.974
   98MYC    C1318641   1.038   3.365   2.060
   98MYC    H2218642   1.128   3.330   2.008
   98MYC    H2318643   0.986   3.275   2.096
   98MYC    C1218644   1.092   3.439   2.184
   98MYC    H2018645   1.005   3.480   2.235
   98MYC    H2118646   1.163   3.515   2.147
   98MYC    C1118647   1.168   3.344   2.278
   98MYC    H1818648   1.257   3.395   2.318
   98MYC    H1918649   1.212   3.265   2.217
   98MYC    C1018650   1.081   3.295   2.395
   98MYC    H1618651   1.135   3.221   2.456
   98MYC    H1718652   0.985   3.256   2.359
   98MYC     C918653   1.056   3.404   2.500
   98MYC    H1418654   1.011   3.488   2.445
   98MYC    H1518655   1.150   3.432   2.550
   98MYC     C818656   0.959   3.344   2.602
   98MYC    H1218657   1.000   3.252   2.647
   98MYC    H1318658   0.870   3.312   2.546
   98MYC     C718659   0.920   3.436   2.718
   98MYC    H1018660   0.842   3.388   2.779
   98MYC    H1118661   0.880   3.533   2.687
   98MYC     C618662   1.037   3.470   2.812
   98MYC     H818663   1.123   3.507   2.754
   98MYC     H918664   1.066   3.376   2.859
   98MYC     C518665   0.995   3.575   2.917
   98MYC     H618666   0.887   3.563   2.933
   98MYC     H718667   1.006   3.675   2.874
   98MYC     C418668   1.055   3.571   3.059
   98MYC     H418669   1.072   3.673   3.094
   98MYC     H518670   1.160   3.541   3.054
   98MYC     C218671   0.988   3.481   3.164
   98MYC     H218672   0.895   3.529   3.198
   98MYC     O318673   0.949   3.359   3.101
   98MYC     H318674   0.946   3.380   3.006
   98MYC     C118675   1.077   3.454   3.286
   98MYC     H118676   1.112   3.551   3.323
   98MYC    C8118677   1.210   3.392   3.245
   98MYC    O8218678   1.230   3.314   3.153
   98MYC    O8318679   1.314   3.420   3.326
   98MYC   6H1518680   1.389   3.385   3.275
   98MYC    C2018681   1.008   3.382   3.402
   98MYC    H3418682   0.922   3.325   3.364
   98MYC    H3518683   1.071   3.307   3.451
   98MYC    C2118684   0.966   3.481   3.512
   98MYC    H3618685   1.040   3.559   3.532
   98MYC    H3718686   0.871   3.532   3.489
   98MYC    C2218687   0.942   3.411   3.648
   98MYC    H3818688   0.854   3.346   3.639
   98MYC    H3918689   1.020   3.338   3.671
   98MYC    C2318690   0.922   3.509   3.765
   98MYC    H4018691   0.991   3.594   3.763
   98MYC    H4118692   0.820   3.550   3.765
   98MYC    C2418693   0.942   3.438   3.899
   98MYC    H4218694   0.880   3.347   3.890
   98MYC    H4318695   1.045   3.401   3.905
   98MYC    C2518696   0.896   3.522   4.019
   98MYC    H4418697   0.954   3.615   4.026
   98MYC    H4518698   0.792   3.553   4.000
   98MYC    C2618699   0.907   3.454   4.157
   98MYC    H4618700   0.826   3.380   4.164
   98MYC    H4718701   1.005   3.406   4.164
   98MYC    C2718702   0.895   3.550   4.276
   98MYC    H4818703   0.977   3.622   4.275
   98MYC    H4918704   0.794   3.592   4.268
   98MYC    C2818705   0.890   3.472   4.409
   98MYC    H5018706   0.812   3.395   4.409
   98MYC    H5118707   0.981   3.412   4.422
   98MYC    C2918708   0.870   3.558   4.535
   98MYC    H5218709   0.939   3.643   4.533
   98MYC    H5318710   0.775   3.613   4.535
   98MYC    C3018711   0.887   3.489   4.672
   98MYC    H5418712   0.835   3.393   4.665
   98MYC    H5518713   0.993   3.468   4.689
   98MYC    C3118714   0.839   3.576   4.790
   98MYC    H5618715   0.886   3.673   4.770
   98MYC    H5718716   0.730   3.582   4.795
   98MYC    C3218717   0.883   3.519   4.926
   98MYC    H5818718   0.834   3.422   4.939
   98MYC    H5918719   0.991   3.498   4.928
   98MYC    C3318720   0.835   3.610   5.040
   98MYC    H6018721   0.897   3.701   5.032
   98MYC    H6118722   0.731   3.645   5.033
   98MYC    C3418723   0.852   3.539   5.175
   98MYC    H6218724   0.794   3.446   5.178
   98MYC    H6318725   0.956   3.506   5.177
   98MYC    C3518726   0.849   3.632   5.298
   98MYC    H6418727   0.924   3.713   5.294
   98MYC    H6518728   0.752   3.682   5.307
   98MYC    C3618729   0.881   3.561   5.430
   98MYC    H6618730   0.799   3.491   5.451
   98MYC    H6718731   0.974   3.501   5.429
   98MYC    C3718732   0.890   3.660   5.547
   98MYC    H6818733   0.964   3.738   5.529
   98MYC    H6918734   0.793   3.711   5.547
   98MYC    C3818735   0.923   3.592   5.681
   98MYC    H7018736   0.848   3.516   5.707
   98MYC    H7118737   1.018   3.543   5.655
   98MYC    C3918738   0.928   3.690   5.800
   98MYC    H7218739   0.992   3.772   5.765
   98MYC    H7318740   0.825   3.720   5.826
   98MYC    C4018741   0.996   3.644   5.930
   98MYC    H7418742   0.978   3.536   5.929
   98MYC    H7518743   1.104   3.664   5.930
   98MYC    C4118744   0.937   3.698   6.062
   98MYC    H7618745   0.946   3.807   6.074
   98MYC    H7718746   0.830   3.677   6.071
   98MYC    C4218747   1.006   3.627   6.180
   98MYC    H7818748   1.047   3.530   6.150
   98MYC    H7918749   1.092   3.684   6.217
   98MYC    C4318750   0.917   3.597   6.302
   98MYC    H8018751   0.980   3.539   6.370
   98MYC    H8118752   0.826   3.542   6.272
   98MYC    H8218753   0.887   3.690   6.352
   99MYC   5H1518754   0.783   4.309   6.209
   99MYC    C8018755   0.836   4.287   6.115
   99MYC   3H1518756   0.858   4.386   6.075
   99MYC   4H1518757   0.926   4.227   6.136
   99MYC    C7918758   0.749   4.211   6.013
   99MYC   1H1518759   0.660   4.272   5.994
   99MYC   2H1518760   0.719   4.123   6.071
   99MYC    C7818761   0.818   4.159   5.886
   99MYC   9H1418762   0.900   4.090   5.911
   99MYC   0H1518763   0.870   4.241   5.836
   99MYC    C7718764   0.717   4.088   5.795
   99MYC   7H1418765   0.658   4.024   5.861
   99MYC   8H1418766   0.775   4.012   5.740
   99MYC    C7618767   0.630   4.182   5.710
   99MYC   5H1418768   0.704   4.251   5.668
   99MYC   6H1418769   0.569   4.242   5.778
   99MYC    C7518770   0.542   4.110   5.607
   99MYC   3H1418771   0.463   4.179   5.576
   99MYC   4H1418772   0.491   4.024   5.653
   99MYC    C7418773   0.637   4.062   5.496
   99MYC   1H1418774   0.704   3.980   5.526
   99MYC   2H1418775   0.693   4.150   5.460
   99MYC    C7318776   0.567   4.015   5.367
   99MYC   9H1318777   0.478   4.073   5.341
   99MYC   0H1418778   0.525   3.915   5.382
   99MYC    C7218779   0.664   4.010   5.248
   99MYC   7H1318780   0.743   3.938   5.270
   99MYC   8H1318781   0.708   4.108   5.227
   99MYC    C7118782   0.602   3.950   5.121
   99MYC   5H1318783   0.521   4.022   5.103
   99MYC   6H1318784   0.558   3.850   5.120
   99MYC    C7018785   0.700   3.949   5.002
   99MYC   3H1318786   0.762   3.859   5.002
   99MYC   4H1318787   0.767   4.035   5.012
   99MYC    C6918788   0.630   3.951   4.865
   99MYC   1H1318789   0.542   4.017   4.870
   99MYC   2H1318790   0.588   3.852   4.843
   99MYC    C6818791   0.717   3.988   4.744
   99MYC   9H1218792   0.796   3.913   4.729
   99MYC   0H1318793   0.759   4.089   4.756
   99MYC    C6718794   0.620   4.008   4.627
   99MYC   7H1218795   0.549   4.087   4.654
   99MYC   8H1218796   0.562   3.919   4.601
   99MYC    C6618797   0.701   4.052   4.504
   99MYC   5H1218798   0.788   3.986   4.493
   99MYC   6H1218799   0.738   4.154   4.520
   99MYC    C6518800   0.614   4.043   4.377
   99MYC   3H1218801   0.524   4.106   4.382
   99MYC   4H1218802   0.585   3.939   4.359
   99MYC    C6418803   0.698   4.093   4.258
   99MYC   1H1218804   0.782   4.022   4.257
   99MYC   2H1218805   0.734   4.196   4.267
   99MYC    C6318806   0.627   4.083   4.122
   99MYC   9H1118807   0.560   4.170   4.121
   99MYC   0H1218808   0.571   3.990   4.112
   99MYC    C6218809   0.731   4.082   4.009
   99MYC   7H1118810   0.789   3.989   4.019
   99MYC   8H1118811   0.807   4.160   4.017
   99MYC    C6118812   0.668   4.080   3.869
   99MYC   5H1118813   0.601   4.167   3.864
   99MYC   6H1118814   0.618   3.984   3.853
   99MYC    C6018815   0.767   4.090   3.755
   99MYC   4H1118816   0.852   4.025   3.772
   99MYC    C5818817   0.709   4.103   3.616
   99MYC   1H1118818   0.601   4.116   3.606
   99MYC    C5918819   0.785   4.218   3.677
   99MYC   2H1118820   0.880   4.251   3.633
   99MYC   3H1118821   0.726   4.305   3.705
   99MYC    C5718822   0.772   3.999   3.525
   99MYC   9H1018823   0.738   3.896   3.533
   99MYC   0H1118824   0.881   3.998   3.537
   99MYC    C5618825   0.746   4.034   3.377
   99MYC   7H1018826   0.793   4.129   3.346
   99MYC   8H1018827   0.638   4.041   3.361
   99MYC    C5518828   0.806   3.937   3.275
   99MYC   5H1018829   0.756   3.841   3.293
   99MYC   6H1018830   0.913   3.923   3.296
   99MYC    C5418831   0.781   3.993   3.134
   99MYC   3H1018832   0.799   4.102   3.132
   99MYC   4H1018833   0.674   3.982   3.112
   99MYC    C5318834   0.862   3.925   3.023
   99MYC   1H1018835   0.856   3.815   3.022
   99MYC   2H1018836   0.970   3.945   3.033
   99MYC    C5218837   0.816   3.978   2.886
   99MYC    H9918838   0.815   4.087   2.892
   99MYC   0H1018839   0.714   3.948   2.860
   99MYC    C5118840   0.911   3.945   2.770
   99MYC    H9718841   0.912   3.837   2.752
   99MYC    H9818842   1.018   3.964   2.782
   99MYC    C5018843   0.864   4.017   2.642
   99MYC    H9518844   0.876   4.125   2.659
   99MYC    H9618845   0.758   4.006   2.618
   99MYC    C4918846   0.931   3.968   2.512
   99MYC    H9318847   0.921   3.859   2.505
   99MYC    H9418848   1.037   3.996   2.518
   99MYC    C4818849   0.871   4.034   2.387
   99MYC    H9118850   0.909   4.136   2.379
   99MYC    H9218851   0.765   4.058   2.404
   99MYC    C4718852   0.897   3.957   2.256
   99MYC    H8918853   0.871   3.851   2.268
   99MYC    H9018854   1.002   3.972   2.228
   99MYC    C4618855   0.812   4.022   2.146
   99MYC    H8718856   0.841   4.126   2.131
   99MYC    H8818857   0.706   4.026   2.175
   99MYC    C4518858   0.841   3.957   2.010
   99MYC    H8518859   0.810   3.852   2.012
   99MYC    H8618860   0.947   3.961   1.982
   99MYC    C4418861   0.773   4.027   1.891
   99MYC    H8318862   0.815   3.993   1.796
   99MYC    H8418863   0.808   4.131   1.887
   99MYC    C1818864   0.621   4.020   1.888
   99MYC    H3118865   0.580   4.001   1.987
   99MYC    C1718866   0.553   4.122   1.800
   99MYC    H3018867   0.616   4.182   1.734
   99MYC    C1918868   0.548   3.976   1.763
   99MYC    H3218869   0.603   3.933   1.680
   99MYC    H3318870   0.459   3.917   1.784
   99MYC    C1618871   0.431   4.201   1.845
   99MYC    H2818872   0.365   4.135   1.904
   99MYC    H2918873   0.367   4.230   1.760
   99MYC    C1518874   0.481   4.327   1.917
   99MYC    H2618875   0.390   4.386   1.937
   99MYC    H2718876   0.545   4.390   1.854
   99MYC    C1418877   0.547   4.294   2.052
   99MYC    H2418878   0.646   4.247   2.039
   99MYC    H2518879   0.479   4.224   2.101
   99MYC    C1318880   0.578   4.415   2.143
   99MYC    H2218881   0.492   4.483   2.141
   99MYC    H2318882   0.651   4.477   2.091
   99MYC    C1218883   0.614   4.361   2.282
   99MYC    H2018884   0.689   4.281   2.276
   99MYC    H2118885   0.529   4.319   2.337
   99MYC    C1118886   0.668   4.473   2.374
   99MYC    H1818887   0.597   4.551   2.403
   99MYC    H1918888   0.756   4.513   2.322
   99MYC    C1018889   0.722   4.409   2.503
   99MYC    H1618890   0.824   4.449   2.513
   99MYC    H1718891   0.740   4.301   2.487
   99MYC     C918892   0.642   4.440   2.630
   99MYC    H1418893   0.556   4.372   2.636
   99MYC    H1518894   0.597   4.540   2.627
   99MYC     C818895   0.727   4.426   2.757
   99MYC    H1218896   0.819   4.485   2.746
   99MYC    H1318897   0.769   4.326   2.770
   99MYC     C718898   0.665   4.471   2.891
   99MYC    H1018899   0.560   4.440   2.893
   99MYC    H1118900   0.668   4.581   2.896
   99MYC     C618901   0.717   4.405   3.019
   99MYC     H818902   0.826   4.411   3.033
   99MYC     H918903   0.704   4.299   2.995
   99MYC     C518904   0.635   4.424   3.148
   99MYC     H618905   0.675   4.359   3.226
   99MYC     H718906   0.531   4.392   3.131
   99MYC     C418907   0.626   4.568   3.202
   99MYC     H418908   0.523   4.583   3.235
   99MYC     H518909   0.653   4.639   3.123
   99MYC     C218910   0.720   4.596   3.320
   99MYC     H218911   0.715   4.511   3.390
   99MYC     O318912   0.851   4.603   3.264
   99MYC     H318913   0.845   4.600   3.167
   99MYC     C118914   0.692   4.725   3.399
   99MYC     H118915   0.590   4.723   3.440
   99MYC    C8118916   0.697   4.848   3.308
   99MYC    O8218917   0.758   4.872   3.206
   99MYC    O8318918   0.599   4.937   3.335
   99MYC   6H1518919   0.598   5.001   3.263
   99MYC    C2018920   0.787   4.750   3.517
   99MYC    H3418921   0.893   4.755   3.488
   99MYC    H3518922   0.766   4.849   3.560
   99MYC    C2118923   0.777   4.636   3.619
   99MYC    H3618924   0.679   4.587   3.625
   99MYC    H3718925   0.841   4.551   3.590
   99MYC    C2218926   0.811   4.675   3.764
   99MYC    H3818927   0.915   4.708   3.770
   99MYC    H3918928   0.745   4.757   3.795
   99MYC    C2318929   0.793   4.553   3.856
   99MYC    H4018930   0.696   4.503   3.850
   99MYC    H4118931   0.871   4.476   3.844
   99MYC    C2418932   0.805   4.602   4.001
   99MYC    H4218933   0.894   4.665   4.011
   99MYC    H4318934   0.726   4.674   4.023
   99MYC    C2518935   0.799   4.498   4.114
   99MYC    H4418936   0.714   4.434   4.090
   99MYC    H4518937   0.887   4.432   4.116
   99MYC    C2618938   0.782   4.563   4.252
   99MYC    H4618939   0.852   4.647   4.262
   99MYC    H4718940   0.681   4.605   4.261
   99MYC    C2718941   0.804   4.479   4.379
   99MYC    H4818942   0.731   4.398   4.368
   99MYC    H4918943   0.903   4.433   4.373
   99MYC    C2818944   0.797   4.546   4.518
   99MYC    H5018945   0.864   4.633   4.515
   99MYC    H5118946   0.696   4.583   4.536
   99MYC    C2918947   0.840   4.456   4.635
   99MYC    H5218948   0.772   4.370   4.634
   99MYC    H5318949   0.942   4.417   4.626
   99MYC    C3018950   0.821   4.538   4.764
   99MYC    H5418951   0.842   4.645   4.757
   99MYC    H5518952   0.715   4.548   4.787
   99MYC    C3118953   0.894   4.476   4.884
   99MYC    H5618954   0.888   4.366   4.876
   99MYC    H5718955   0.996   4.515   4.895
   99MYC    C3218956   0.817   4.503   5.015
   99MYC    H5818957   0.803   4.610   5.035
   99MYC    H5918958   0.713   4.470   5.011
   99MYC    C3318959   0.883   4.443   5.140
   99MYC    H6018960   0.886   4.333   5.132
   99MYC    H6118961   0.988   4.473   5.154
   99MYC    C3418962   0.800   4.484   5.262
   99MYC    H6218963   0.793   4.594   5.262
   99MYC    H6318964   0.694   4.455   5.263
   99MYC    C3518965   0.870   4.442   5.392
   99MYC    H6418966   0.854   4.334   5.403
   99MYC    H6518967   0.976   4.471   5.389
   99MYC    C3618968   0.809   4.517   5.511
   99MYC    H6618969   0.770   4.615   5.483
   99MYC    H6718970   0.728   4.451   5.544
   99MYC    C3718971   0.907   4.528   5.629
   99MYC    H6818972   0.943   4.426   5.648
   99MYC    H6918973   0.993   4.592   5.606
   99MYC    C3818974   0.841   4.597   5.750
   99MYC    H7018975   0.800   4.695   5.721
   99MYC    H7118976   0.760   4.534   5.789
   99MYC    C3918977   0.946   4.620   5.860
   99MYC    H7218978   0.998   4.530   5.896
   99MYC    H7318979   1.028   4.685   5.827
   99MYC    C4018980   0.891   4.689   5.986
   99MYC    H7418981   0.828   4.776   5.965
   99MYC    H7518982   0.830   4.625   6.052
   99MYC    C4118983   1.001   4.746   6.076
   99MYC    H7618984   1.064   4.669   6.123
   99MYC    H7718985   1.059   4.802   6.002
   99MYC    C4218986   0.954   4.838   6.191
   99MYC    H7818987   0.896   4.917   6.142
   99MYC    H7918988   0.886   4.781   6.255
   99MYC    C4318989   1.064   4.906   6.274
   99MYC    H8018990   1.044   5.006   6.316
   99MYC    H8118991   1.151   4.905   6.207
   99MYC    H8218992   1.083   4.843   6.361
  100MYC   5H1518993   0.267   4.914   6.182
  100MYC    C8018994   0.303   4.861   6.094
  100MYC   3H1518995   0.412   4.860   6.108
  100MYC   4H1518996   0.257   4.761   6.101
  100MYC    C7918997   0.265   4.945   5.971
  100MYC   1H1518998   0.295   5.050   5.985
  100MYC   2H1518999   0.155   4.943   5.974
  100MYC    C7819000   0.313   4.877   5.842
  100MYC   9H1419001   0.275   4.774   5.842
  100MYC   0H1519002   0.423   4.872   5.838
  100MYC    C7719003   0.270   4.947   5.712
  100MYC   7H1419004   0.310   5.049   5.713
  100MYC   8H1419005   0.161   4.954   5.704
  100MYC    C7619006   0.319   4.881   5.581
  100MYC   5H1419007   0.303   4.774   5.569
  100MYC   6H1419008   0.421   4.913   5.558
  100MYC    C7519009   0.243   4.945   5.464
  100MYC   3H1419010   0.251   5.054   5.467
  100MYC   4H1419011   0.142   4.902   5.460
  100MYC    C7419012   0.313   4.907   5.333
  100MYC   1H1419013   0.314   4.797   5.326
  100MYC   2H1419014   0.416   4.943   5.339
  100MYC    C7319015   0.233   4.958   5.212
  100MYC   9H1319016   0.226   5.067   5.214
  100MYC   0H1419017   0.128   4.926   5.216
  100MYC    C7219018   0.292   4.910   5.078
  100MYC   7H1319019   0.254   4.810   5.052
  100MYC   8H1319020   0.401   4.915   5.079
  100MYC    C7119021   0.241   4.996   4.961
  100MYC   5H1319022   0.289   5.094   4.978
  100MYC   6H1319023   0.133   5.010   4.969
  100MYC    C7019024   0.289   4.943   4.825
  100MYC   3H1319025   0.252   4.840   4.814
  100MYC   4H1319026   0.398   4.928   4.833
  100MYC    C6919027   0.248   5.033   4.707
  100MYC   1H1319028   0.288   5.135   4.714
  100MYC   2H1319029   0.139   5.047   4.708
  100MYC    C6819030   0.285   4.978   4.568
  100MYC   9H1219031   0.251   4.874   4.562
  100MYC   0H1319032   0.394   4.981   4.557
  100MYC    C6719033   0.229   5.067   4.456
  100MYC   7H1219034   0.264   5.169   4.478
  100MYC   8H1219035   0.120   5.076   4.464
  100MYC    C6619036   0.276   5.011   4.321
  100MYC   5H1219037   0.268   4.902   4.321
  100MYC   6H1219038   0.382   5.027   4.300
  100MYC    C6519039   0.190   5.073   4.209
  100MYC   3H1219040   0.197   5.182   4.203
  100MYC   4H1219041   0.085   5.046   4.223
  100MYC    C6419042   0.247   5.020   4.076
  100MYC   1H1219043   0.273   4.913   4.080
  100MYC   2H1219044   0.337   5.083   4.071
  100MYC    C6319045   0.145   5.040   3.963
  100MYC   9H1119046   0.112   5.144   3.955
  100MYC   0H1219047   0.051   4.991   3.993
  100MYC    C6219048   0.201   4.994   3.827
  100MYC   7H1119049   0.226   4.887   3.829
  100MYC   8H1119050   0.295   5.046   3.806
  100MYC    C6119051   0.109   5.027   3.709
  100MYC   5H1119052   0.087   5.133   3.691
  100MYC   6H1119053   0.012   4.981   3.732
  100MYC    C6019054   0.173   4.980   3.579
  100MYC   4H1119055   0.208   4.877   3.577
  100MYC    C5819056   0.138   5.044   3.447
  100MYC   1H1119057   0.059   5.119   3.456
  100MYC    C5919058   0.273   5.070   3.510
  100MYC   2H1119059   0.361   5.024   3.465
  100MYC   3H1119060   0.277   5.168   3.557
  100MYC    C5719061   0.126   4.971   3.314
  100MYC   9H1019062   0.019   4.962   3.295
  100MYC   0H1119063   0.163   4.869   3.331
  100MYC    C5619064   0.198   5.047   3.201
  100MYC   7H1019065   0.303   5.060   3.231
  100MYC   8H1019066   0.165   5.152   3.197
  100MYC    C5519067   0.182   4.979   3.065
  100MYC   5H1019068   0.078   4.995   3.034
  100MYC   6H1019069   0.206   4.873   3.077
  100MYC    C5419070   0.289   5.018   2.962
  100MYC   3H1019071   0.388   4.986   2.998
  100MYC   4H1019072   0.298   5.127   2.956
  100MYC    C5319073   0.260   4.965   2.821
  100MYC   1H1019074   0.156   4.984   2.790
  100MYC   2H1019075   0.271   4.856   2.816
  100MYC    C5219076   0.347   5.016   2.705
  100MYC    H9919077   0.447   4.980   2.730
  100MYC   0H1019078   0.347   5.126   2.698
  100MYC    C5119079   0.311   4.960   2.566
  100MYC    H9719080   0.203   4.950   2.553
  100MYC    H9819081   0.349   4.857   2.570
  100MYC    C5019082   0.375   5.037   2.449
  100MYC    H9519083   0.484   5.035   2.447
  100MYC    H9619084   0.357   5.145   2.440
  100MYC    C4919085   0.324   4.976   2.317
  100MYC    H9319086   0.216   4.987   2.304
  100MYC    H9419087   0.341   4.868   2.310
  100MYC    C4819088   0.410   5.025   2.199
  100MYC    H9119089   0.516   5.006   2.220
  100MYC    H9219090   0.394   5.133   2.192
  100MYC    C4719091   0.375   4.959   2.064
  100MYC    H8919092   0.266   4.969   2.052
  100MYC    H9019093   0.391   4.851   2.071
  100MYC    C4619094   0.456   5.016   1.947
  100MYC    H8719095   0.563   5.006   1.969
  100MYC    H8819096   0.428   5.120   1.927
  100MYC    C4519097   0.443   4.929   1.820
  100MYC    H8519098   0.339   4.936   1.785
  100MYC    H8619099   0.461   4.822   1.832
  100MYC    C4419100   0.540   4.968   1.706
  100MYC    H8319101   0.559   4.885   1.636
  100MYC    H8419102   0.638   5.002   1.741
  100MYC    C1819103   0.489   5.091   1.633
  100MYC    H3119104   0.413   5.142   1.691
  100MYC    C1719105   0.584   5.168   1.545
  100MYC    H3019106   0.680   5.119   1.529
  100MYC    C1919107   0.471   5.090   1.483
  100MYC    H3219108   0.500   4.999   1.430
  100MYC    H3319109   0.386   5.145   1.443
  100MYC    C1619110   0.585   5.320   1.549
  100MYC    H2819111   0.488   5.358   1.581
  100MYC    H2919112   0.613   5.365   1.453
  100MYC    C1519113   0.685   5.375   1.652
  100MYC    H2619114   0.701   5.480   1.623
  100MYC    H2719115   0.776   5.316   1.637
  100MYC    C1419116   0.641   5.366   1.799
  100MYC    H2419117   0.617   5.264   1.830
  100MYC    H2519118   0.540   5.409   1.811
  100MYC    C1319119   0.733   5.424   1.908
  100MYC    H2219120   0.727   5.532   1.923
  100MYC    H2319121   0.839   5.421   1.880
  100MYC    C1219122   0.716   5.347   2.040
  100MYC    H2019123   0.711   5.242   2.009
  100MYC    H2119124   0.624   5.378   2.091
  100MYC    C1119125   0.818   5.386   2.147
  100MYC    H1819126   0.783   5.484   2.182
  100MYC    H1919127   0.919   5.395   2.106
  100MYC    C1019128   0.833   5.281   2.258
  100MYC    H1619129   0.927   5.313   2.304
  100MYC    H1719130   0.840   5.180   2.214
  100MYC     C919131   0.730   5.287   2.371
  100MYC    H1419132   0.638   5.251   2.324
  100MYC    H1519133   0.711   5.389   2.409
  100MYC     C819134   0.769   5.194   2.487
  100MYC    H1219135   0.878   5.190   2.502
  100MYC    H1319136   0.735   5.091   2.471
  100MYC     C719137   0.714   5.245   2.622
  100MYC    H1019138   0.605   5.256   2.614
  100MYC    H1119139   0.736   5.351   2.636
  100MYC     C619140   0.747   5.156   2.743
  100MYC     H819141   0.853   5.162   2.772
  100MYC     H919142   0.734   5.056   2.701
  100MYC     C519143   0.655   5.176   2.865
  100MYC     H619144   0.658   5.091   2.935
  100MYC     H719145   0.550   5.179   2.836
  100MYC     C419146   0.682   5.303   2.948
  100MYC     H419147   0.590   5.362   2.954
  100MYC     H519148   0.748   5.373   2.896
  100MYC     C219149   0.736   5.275   3.090
  100MYC     H219150   0.672   5.208   3.148
  100MYC     O319151   0.855   5.197   3.076
  100MYC     H319152   0.823   5.119   3.027
  100MYC     C119153   0.766   5.399   3.176
  100MYC     H119154   0.673   5.453   3.198
  100MYC    C8119155   0.846   5.510   3.110
  100MYC    O8219156   0.961   5.543   3.135
  100MYC    O8319157   0.773   5.589   3.029
  100MYC   6H1519158   0.828   5.669   3.017
  100MYC    C2019159   0.825   5.368   3.314
  100MYC    H3419160   0.907   5.295   3.306
  100MYC    H3519161   0.868   5.462   3.349
  100MYC    C2119162   0.722   5.318   3.417
  100MYC    H3619163   0.651   5.400   3.430
  100MYC    H3719164   0.673   5.226   3.382
  100MYC    C2219165   0.797   5.287   3.548
  100MYC    H3819166   0.820   5.180   3.556
  100MYC    H3919167   0.890   5.343   3.558
  100MYC    C2319168   0.706   5.316   3.668
  100MYC    H4019169   0.678   5.422   3.663
  100MYC    H4119170   0.616   5.256   3.649
  100MYC    C2419171   0.762   5.271   3.804
  100MYC    H4219172   0.760   5.161   3.811
  100MYC    H4319173   0.866   5.304   3.813
  100MYC    C2519174   0.676   5.331   3.915
  100MYC    H4419175   0.673   5.441   3.914
  100MYC    H4519176   0.571   5.299   3.913
  100MYC    C2619177   0.733   5.287   4.051
  100MYC    H4619178   0.731   5.178   4.067
  100MYC    H4719179   0.838   5.317   4.060
  100MYC    C2719180   0.657   5.341   4.173
  100MYC    H4819181   0.662   5.450   4.164
  100MYC    H4919182   0.553   5.306   4.172
  100MYC    C2819183   0.731   5.313   4.306
  100MYC    H5019184   0.734   5.204   4.321
  100MYC    H5119185   0.839   5.331   4.299
  100MYC    C2919186   0.666   5.379   4.428
  100MYC    H5219187   0.642   5.486   4.430
  100MYC    H5319188   0.571   5.327   4.449
  100MYC    C3019189   0.755   5.359   4.552
  100MYC    H5419190   0.777   5.255   4.578
  100MYC    H5519191   0.851   5.410   4.534
  100MYC    C3119192   0.695   5.421   4.679
  100MYC    H5619193   0.670   5.527   4.670
  100MYC    H5719194   0.606   5.360   4.699
  100MYC    C3219195   0.784   5.409   4.803
  100MYC    H5819196   0.808   5.302   4.811
  100MYC    H5919197   0.881   5.458   4.786
  100MYC    C3319198   0.723   5.462   4.934
  100MYC    H6019199   0.730   5.571   4.927
  100MYC    H6119200   0.618   5.431   4.944
  100MYC    C3419201   0.806   5.424   5.058
  100MYC    H6219202   0.837   5.319   5.046
  100MYC    H6319203   0.902   5.476   5.049
  100MYC    C3519204   0.738   5.452   5.193
  100MYC    H6419205   0.679   5.544   5.196
  100MYC    H6519206   0.678   5.362   5.212
  100MYC    C3619207   0.840   5.458   5.308
  100MYC    H6619208   0.921   5.384   5.301
  100MYC    H6719209   0.894   5.552   5.291
  100MYC    C3719210   0.783   5.461   5.451
  100MYC    H6819211   0.697   5.527   5.468
  100MYC    H6919212   0.760   5.358   5.478
  100MYC    C3819213   0.895   5.515   5.541
  100MYC    H7019214   0.989   5.468   5.509
  100MYC    H7119215   0.904   5.623   5.525
  100MYC    C3919216   0.874   5.483   5.690
  100MYC    H7219217   0.780   5.533   5.719
  100MYC    H7319218   0.849   5.376   5.696
  100MYC    C4019219   0.987   5.519   5.788
  100MYC    H7419220   1.078   5.464   5.762
  100MYC    H7519221   1.010   5.627   5.782
  100MYC    C4119222   0.944   5.486   5.932
  100MYC    H7619223   0.858   5.550   5.956
  100MYC    H7719224   0.912   5.382   5.946
  100MYC    C4219225   1.050   5.533   6.033
  100MYC    H7819226   1.136   5.466   6.022
  100MYC    H7919227   1.084   5.634   6.008
  100MYC    C4319228   1.007   5.525   6.181
  100MYC    H8019229   1.086   5.567   6.244
  100MYC    H8119230   0.997   5.421   6.216
  100MYC    H8219231   0.911   5.576   6.186
  101MYC   5H1519232   0.471   6.164   6.221
  101MYC    C8019233   0.511   6.102   6.140
  101MYC   3H1519234   0.617   6.107   6.167
  101MYC   4H1519235   0.488   5.999   6.169
  101MYC    C7919236   0.464   6.164   6.007
  101MYC   1H1519237   0.488   6.270   5.991
  101MYC   2H1519238   0.354   6.158   6.005
  101MYC    C7819239   0.516   6.084   5.887
  101MYC   9H1419240   0.491   5.980   5.911
  101MYC   0H1519241   0.625   6.093   5.882
  101MYC    C7719242   0.452   6.122   5.752
  101MYC   7H1419243   0.447   6.231   5.745
  101MYC   8H1419244   0.346   6.099   5.768
  101MYC    C7619245   0.516   6.061   5.626
  101MYC   5H1419246   0.525   5.952   5.628
  101MYC   6H1419247   0.620   6.095   5.627
  101MYC    C7519248   0.458   6.108   5.492
  101MYC   3H1419249   0.476   6.215   5.482
  101MYC   4H1419250   0.349   6.095   5.488
  101MYC    C7419251   0.522   6.034   5.373
  101MYC   1H1419252   0.518   5.924   5.381
  101MYC   2H1419253   0.627   6.063   5.361
  101MYC    C7319254   0.453   6.076   5.243
  101MYC   9H1319255   0.438   6.185   5.244
  101MYC   0H1419256   0.357   6.024   5.237
  101MYC    C7219257   0.536   6.038   5.119
  101MYC   7H1319258   0.567   5.934   5.136
  101MYC   8H1319259   0.627   6.099   5.123
  101MYC    C7119260   0.465   6.066   4.985
  101MYC   5H1319261   0.421   6.165   5.002
  101MYC   6H1319262   0.382   5.995   4.980
  101MYC    C7019263   0.559   6.054   4.864
  101MYC   3H1319264   0.600   5.952   4.857
  101MYC   4H1319265   0.647   6.119   4.878
  101MYC    C6919266   0.481   6.094   4.737
  101MYC   1H1319267   0.450   6.199   4.751
  101MYC   2H1319268   0.391   6.031   4.730
  101MYC    C6819269   0.557   6.077   4.605
  101MYC   9H1219270   0.595   5.974   4.597
  101MYC   0H1319271   0.646   6.141   4.605
  101MYC    C6719272   0.471   6.111   4.482
  101MYC   7H1219273   0.447   6.218   4.477
  101MYC   8H1219274   0.370   6.068   4.474
  101MYC    C6619275   0.547   6.075   4.353
  101MYC   5H1219276   0.545   5.965   4.343
  101MYC   6H1219277   0.651   6.099   4.380
  101MYC    C6519278   0.496   6.140   4.224
  101MYC   3H1219279   0.515   6.247   4.212
  101MYC   4H1219280   0.386   6.135   4.226
  101MYC    C6419281   0.548   6.069   4.099
  101MYC   1H1219282   0.548   5.960   4.116
  101MYC   2H1219283   0.655   6.092   4.096
  101MYC    C6319284   0.465   6.103   3.974
  101MYC   9H1119285   0.462   6.212   3.959
  101MYC   0H1219286   0.362   6.072   3.995
  101MYC    C6219287   0.508   6.027   3.847
  101MYC   7H1119288   0.472   5.924   3.854
  101MYC   8H1119289   0.617   6.021   3.845
  101MYC    C6119290   0.453   6.088   3.717
  101MYC   5H1119291   0.470   6.196   3.713
  101MYC   6H1119292   0.343   6.081   3.711
  101MYC    C6019293   0.512   6.018   3.595
  101MYC   4H1119294   0.516   5.910   3.605
  101MYC    C5819295   0.509   6.071   3.454
  101MYC   1H1119296   0.451   6.162   3.437
  101MYC    C5919297   0.636   6.078   3.534
  101MYC   2H1119298   0.716   6.010   3.505
  101MYC   3H1119299   0.656   6.174   3.580
  101MYC    C5719300   0.502   5.975   3.336
  101MYC   9H1019301   0.401   5.933   3.332
  101MYC   0H1119302   0.574   5.893   3.345
  101MYC    C5619303   0.532   6.054   3.207
  101MYC   7H1019304   0.640   6.055   3.188
  101MYC   8H1019305   0.502   6.160   3.218
  101MYC    C5519306   0.470   5.996   3.079
  101MYC   5H1019307   0.361   5.998   3.081
  101MYC   6H1019308   0.496   5.890   3.075
  101MYC    C5419309   0.510   6.066   2.948
  101MYC   3H1019310   0.615   6.042   2.928
  101MYC   4H1019311   0.500   6.174   2.963
  101MYC    C5319312   0.423   6.033   2.825
  101MYC   1H1019313   0.402   6.133   2.786
  101MYC   2H1019314   0.327   5.992   2.858
  101MYC    C5219315   0.493   5.947   2.718
  101MYC    H9919316   0.533   5.856   2.764
  101MYC   0H1019317   0.579   6.008   2.687
  101MYC    C5119318   0.403   5.921   2.596
  101MYC    H9719319   0.376   6.024   2.570
  101MYC    H9819320   0.311   5.870   2.627
  101MYC    C5019321   0.474   5.857   2.476
  101MYC    H9519322   0.447   5.751   2.473
  101MYC    H9619323   0.583   5.863   2.477
  101MYC    C4919324   0.423   5.925   2.347
  101MYC    H9319325   0.452   6.031   2.358
  101MYC    H9419326   0.315   5.914   2.334
  101MYC    C4819327   0.477   5.871   2.214
  101MYC    H9119328   0.460   5.763   2.206
  101MYC    H9219329   0.584   5.895   2.220
  101MYC    C4719330   0.411   5.940   2.094
  101MYC    H8919331   0.414   6.050   2.098
  101MYC    H9019332   0.305   5.913   2.091
  101MYC    C4619333   0.481   5.898   1.963
  101MYC    H8719334   0.496   5.790   1.966
  101MYC    H8819335   0.578   5.943   1.941
  101MYC    C4519336   0.391   5.910   1.839
  101MYC    H8519337   0.360   6.012   1.814
  101MYC    H8619338   0.293   5.866   1.863
  101MYC    C4419339   0.444   5.829   1.719
  101MYC    H8319340   0.362   5.824   1.647
  101MYC    H8419341   0.480   5.728   1.741
  101MYC    C1819342   0.558   5.905   1.652
  101MYC    H3119343   0.551   6.013   1.661
  101MYC    C1719344   0.689   5.837   1.622
  101MYC    H3019345   0.707   5.736   1.656
  101MYC    C1919346   0.588   5.859   1.512
  101MYC    H3219347   0.544   5.770   1.468
  101MYC    H3319348   0.618   5.929   1.434
  101MYC    C1619349   0.817   5.918   1.607
  101MYC    H2819350   0.802   6.015   1.655
  101MYC    H2919351   0.831   5.951   1.503
  101MYC    C1519352   0.942   5.856   1.671
  101MYC    H2619353   1.024   5.926   1.653
  101MYC    H2719354   0.967   5.763   1.618
  101MYC    C1419355   0.927   5.819   1.819
  101MYC    H2419356   0.870   5.725   1.825
  101MYC    H2519357   0.866   5.893   1.873
  101MYC    C1319358   1.061   5.791   1.888
  101MYC    H2219359   1.133   5.871   1.872
  101MYC    H2319360   1.110   5.702   1.845
  101MYC    C1219361   1.027   5.766   2.036
  101MYC    H2019362   0.954   5.685   2.027
  101MYC    H2119363   0.983   5.857   2.079
  101MYC    C1119364   1.155   5.730   2.113
  101MYC    H1819365   1.224   5.816   2.107
  101MYC    H1919366   1.205   5.643   2.068
  101MYC    C1019367   1.131   5.704   2.262
  101MYC    H1619368   1.221   5.658   2.306
  101MYC    H1719369   1.053   5.626   2.265
  101MYC     C919370   1.095   5.830   2.342
  101MYC    H1419371   0.994   5.867   2.319
  101MYC    H1519372   1.171   5.903   2.313
  101MYC     C819373   1.112   5.804   2.493
  101MYC    H1219374   1.212   5.773   2.527
  101MYC    H1319375   1.046   5.718   2.513
  101MYC     C719376   1.060   5.923   2.575
  101MYC    H1019377   0.954   5.947   2.556
  101MYC    H1119378   1.119   6.009   2.540
  101MYC     C619379   1.077   5.905   2.726
  101MYC     H819380   1.175   5.865   2.757
  101MYC     H919381   1.008   5.821   2.744
  101MYC     C519382   1.041   6.027   2.812
  101MYC     H619383   0.933   6.043   2.803
  101MYC     H719384   1.098   6.113   2.773
  101MYC     C419385   1.082   6.006   2.959
  101MYC     H419386   1.081   6.111   2.992
  101MYC     H519387   1.187   5.975   2.961
  101MYC     C219388   0.999   5.916   3.052
  101MYC     H219389   0.910   5.978   3.072
  101MYC     O319390   0.960   5.796   2.987
  101MYC     H319391   1.037   5.737   2.988
  101MYC     C119392   1.077   5.899   3.183
  101MYC     H119393   1.111   5.999   3.215
  101MYC    C8119394   1.204   5.816   3.172
  101MYC    O8219395   1.215   5.730   3.086
  101MYC    O8319396   1.310   5.838   3.253
  101MYC   6H1519397   1.369   5.765   3.226
  101MYC    C2019398   0.989   5.849   3.298
  101MYC    H3419399   0.885   5.878   3.276
  101MYC    H3519400   0.990   5.739   3.300
  101MYC    C2119401   1.026   5.911   3.434
  101MYC    H3619402   1.135   5.919   3.440
  101MYC    H3719403   0.991   6.015   3.429
  101MYC    C2219404   0.973   5.833   3.555
  101MYC    H3819405   0.869   5.807   3.534
  101MYC    H3919406   1.031   5.739   3.557
  101MYC    C2319407   0.974   5.911   3.687
  101MYC    H4019408   1.074   5.952   3.706
  101MYC    H4119409   0.904   5.995   3.675
  101MYC    C2419410   0.947   5.830   3.815
  101MYC    H4219411   0.881   5.746   3.791
  101MYC    H4319412   1.043   5.786   3.843
  101MYC    C2519413   0.905   5.907   3.941
  101MYC    H4419414   0.977   5.989   3.956
  101MYC    H4519415   0.812   5.953   3.907
  101MYC    C2619416   0.879   5.827   4.070
  101MYC    H4619417   0.788   5.768   4.055
  101MYC    H4719418   0.965   5.759   4.070
  101MYC    C2719419   0.884   5.891   4.209
  101MYC    H4819420   0.942   5.984   4.213
  101MYC    H4919421   0.784   5.923   4.239
  101MYC    C2819422   0.946   5.799   4.316
  101MYC    H5019423   0.891   5.704   4.318
  101MYC    H5119424   1.050   5.778   4.289
  101MYC    C2919425   0.953   5.867   4.453
  101MYC    H5219426   1.017   5.956   4.446
  101MYC    H5319427   0.852   5.907   4.471
  101MYC    C3019428   0.997   5.781   4.572
  101MYC    H5419429   0.945   5.685   4.572
  101MYC    H5519430   1.099   5.749   4.548
  101MYC    C3119431   0.990   5.860   4.704
  101MYC    H5619432   1.065   5.940   4.692
  101MYC    H5719433   0.893   5.909   4.719
  101MYC    C3219434   1.017   5.781   4.833
  101MYC    H5819435   0.961   5.687   4.844
  101MYC    H5919436   1.121   5.748   4.843
  101MYC    C3319437   0.980   5.868   4.953
  101MYC    H6019438   1.025   5.966   4.932
  101MYC    H6119439   0.874   5.879   4.980
  101MYC    C3419440   1.051   5.816   5.079
  101MYC    H6219441   1.014   5.714   5.093
  101MYC    H6319442   1.156   5.796   5.058
  101MYC    C3519443   1.036   5.893   5.212
  101MYC    H6419444   1.066   5.998   5.199
  101MYC    H6519445   0.931   5.911   5.239
  101MYC    C3619446   1.104   5.830   5.334
  101MYC    H6619447   1.075   5.726   5.353
  101MYC    H6719448   1.211   5.834   5.310
  101MYC    C3719449   1.065   5.906   5.462
  101MYC    H6819450   1.092   6.012   5.447
  101MYC    H6919451   0.956   5.903   5.468
  101MYC    C3819452   1.124   5.850   5.593
  101MYC    H7019453   1.062   5.765   5.623
  101MYC    H7119454   1.226   5.815   5.573
  101MYC    C3919455   1.127   5.956   5.705
  101MYC    H7219456   1.202   6.033   5.680
  101MYC    H7319457   1.029   5.998   5.725
  101MYC    C4019458   1.173   5.888   5.835
  101MYC    H7419459   1.111   5.801   5.858
  101MYC    H7519460   1.278   5.858   5.830
  101MYC    C4119461   1.145   5.983   5.953
  101MYC    H7619462   1.172   6.086   5.925
  101MYC    H7719463   1.040   5.990   5.984
  101MYC    C4219464   1.227   5.939   6.075
  101MYC    H7819465   1.228   5.830   6.086
  101MYC    H7919466   1.330   5.971   6.058
  101MYC    C4319467   1.165   5.996   6.204
  101MYC    H8019468   1.240   5.994   6.285
  101MYC    H8119469   1.075   5.943   6.238
  101MYC    H8219470   1.132   6.099   6.182
  102MYC   5H1519471   1.187   0.030   6.242
  102MYC    C8019472   1.261   0.039   6.161
  102MYC   3H1519473   1.313   0.132   6.187
  102MYC   4H1519474   1.337  -0.039   6.167
  102MYC    C7919475   1.197   0.053   6.022
  102MYC   1H1519476   1.131   0.141   6.032
  102MYC   2H1519477   1.129  -0.032   6.014
  102MYC    C7819478   1.298   0.056   5.906
  102MYC   9H1419479   1.365  -0.029   5.922
  102MYC   0H1519480   1.363   0.145   5.906
  102MYC    C7719481   1.232   0.031   5.769
  102MYC   7H1419482   1.135   0.081   5.759
  102MYC   8H1419483   1.211  -0.075   5.750
  102MYC    C7619484   1.331   0.068   5.658
  102MYC   5H1419485   1.425   0.012   5.669
  102MYC   6H1419486   1.355   0.174   5.668
  102MYC    C7519487   1.263   0.027   5.526
  102MYC   3H1419488   1.158   0.057   5.514
  102MYC   4H1419489   1.264  -0.082   5.511
  102MYC    C7419490   1.331   0.088   5.402
  102MYC   1H1419491   1.436   0.057   5.400
  102MYC   2H1419492   1.329   0.197   5.408
  102MYC    C7319493   1.274   0.039   5.268
  102MYC   9H1319494   1.169   0.067   5.254
  102MYC   0H1419495   1.259  -0.069   5.260
  102MYC    C7219496   1.366   0.087   5.154
  102MYC   7H1319497   1.462   0.035   5.168
  102MYC   8H1319498   1.392   0.193   5.145
  102MYC    C7119499   1.305   0.072   5.014
  102MYC   5H1319500   1.224   0.144   4.997
  102MYC   6H1319501   1.257  -0.026   5.002
  102MYC    C7019502   1.405   0.081   4.898
  102MYC   3H1319503   1.487   0.010   4.914
  102MYC   4H1319504   1.453   0.180   4.892
  102MYC    C6919505   1.330   0.062   4.765
  102MYC   1H1319506   1.245   0.129   4.759
  102MYC   2H1319507   1.295  -0.042   4.765
  102MYC    C6819508   1.412   0.100   4.640
  102MYC   9H1219509   1.504   0.044   4.623
  102MYC   0H1319510   1.448   0.203   4.647
  102MYC    C6719511   1.331   0.098   4.509
  102MYC   7H1219512   1.242   0.155   4.538
  102MYC   8H1219513   1.308  -0.008   4.492
  102MYC    C6619514   1.402   0.173   4.395
  102MYC   5H1219515   1.504   0.134   4.381
  102MYC   6H1219516   1.407   0.280   4.415
  102MYC    C6519517   1.317   0.157   4.268
  102MYC   3H1219518   1.233   0.226   4.278
  102MYC   4H1219519   1.271   0.057   4.265
  102MYC    C6419520   1.391   0.187   4.136
  102MYC   1H1219521   1.458   0.101   4.128
  102MYC   2H1219522   1.457   0.274   4.143
  102MYC    C6319523   1.295   0.207   4.017
  102MYC   9H1119524   1.240   0.298   4.041
  102MYC   0H1219525   1.222   0.126   4.007
  102MYC    C6219526   1.369   0.232   3.885
  102MYC   7H1119527   1.411   0.139   3.844
  102MYC   8H1119528   1.451   0.304   3.900
  102MYC    C6119529   1.272   0.295   3.782
  102MYC   5H1119530   1.269   0.403   3.798
  102MYC   6H1119531   1.174   0.251   3.803
  102MYC    C6019532   1.300   0.265   3.636
  102MYC   4H1119533   1.322   0.160   3.620
  102MYC    C5819534   1.236   0.349   3.527
  102MYC   1H1119535   1.183   0.441   3.552
  102MYC    C5919536   1.384   0.360   3.555
  102MYC   2H1119537   1.456   0.319   3.485
  102MYC   3H1119538   1.435   0.440   3.609
  102MYC    C5719539   1.188   0.294   3.394
  102MYC   9H1019540   1.085   0.257   3.403
  102MYC   0H1119541   1.242   0.205   3.361
  102MYC    C5619542   1.188   0.394   3.277
  102MYC   7H1019543   1.290   0.434   3.267
  102MYC   8H1019544   1.112   0.472   3.285
  102MYC    C5519545   1.166   0.326   3.140
  102MYC   5H1019546   1.057   0.316   3.134
  102MYC   6H1019547   1.205   0.224   3.137
  102MYC    C5419548   1.215   0.410   3.021
  102MYC   3H1019549   1.318   0.444   3.041
  102MYC   4H1019550   1.159   0.504   3.020
  102MYC    C5319551   1.200   0.340   2.885
  102MYC   1H1019552   1.093   0.335   2.858
  102MYC   2H1019553   1.229   0.234   2.893
  102MYC    C5219554   1.271   0.391   2.759
  102MYC    H9919555   1.374   0.354   2.766
  102MYC   0H1019556   1.278   0.501   2.766
  102MYC    C5119557   1.196   0.325   2.642
  102MYC    H9719558   1.103   0.377   2.614
  102MYC    H9819559   1.176   0.220   2.664
  102MYC    C5019560   1.289   0.313   2.521
  102MYC    H9519561   1.379   0.258   2.550
  102MYC    H9619562   1.325   0.410   2.484
  102MYC    C4919563   1.236   0.225   2.407
  102MYC    H9319564   1.144   0.266   2.363
  102MYC    H9419565   1.226   0.122   2.443
  102MYC    C4819566   1.328   0.227   2.283
  102MYC    H9119567   1.424   0.182   2.312
  102MYC    H9219568   1.359   0.330   2.258
  102MYC    C4719569   1.260   0.167   2.159
  102MYC    H8919570   1.177   0.233   2.131
  102MYC    H9019571   1.223   0.069   2.190
  102MYC    C4619572   1.358   0.144   2.042
  102MYC    H8719573   1.416   0.058   2.077
  102MYC    H8819574   1.427   0.229   2.038
  102MYC    C4519575   1.288   0.106   1.911
  102MYC    H8519576   1.227   0.193   1.884
  102MYC    H8619577   1.215   0.029   1.940
  102MYC    C4419578   1.390   0.063   1.804
  102MYC    H8319579   1.333   0.021   1.721
  102MYC    H8419580   1.456  -0.014   1.847
  102MYC    C1819581   1.466   0.184   1.751
  102MYC    H3119582   1.420   0.281   1.736
  102MYC    C1719583   1.612   0.198   1.786
  102MYC    H3019584   1.665   0.116   1.833
  102MYC    C1919585   1.572   0.158   1.647
  102MYC    H3219586   1.586   0.056   1.610
  102MYC    H3319587   1.556   0.229   1.566
  102MYC    C1619588   1.671   0.336   1.813
  102MYC    H2819589   1.591   0.407   1.840
  102MYC    H2919590   1.723   0.372   1.723
  102MYC    C1519591   1.776   0.333   1.926
  102MYC    H2619592   1.836   0.424   1.916
  102MYC    H2719593   1.840   0.244   1.919
  102MYC    C1419594   1.717   0.325   2.067
  102MYC    H2419595   1.688   0.222   2.093
  102MYC    H2519596   1.626   0.385   2.081
  102MYC    C1319597   1.816   0.378   2.172
  102MYC    H2219598   1.822   0.485   2.151
  102MYC    H2319599   1.916   0.334   2.157
  102MYC    C1219600   1.766   0.368   2.317
  102MYC    H2019601   1.780   0.264   2.348
  102MYC    H2119602   1.662   0.401   2.327
  102MYC    C1119603   1.856   0.450   2.411
  102MYC    H1819604   1.827   0.556   2.408
  102MYC    H1919605   1.959   0.443   2.373
  102MYC    C1019606   1.867   0.386   2.550
  102MYC    H1619607   1.958   0.428   2.595
  102MYC    H1719608   1.875   0.278   2.536
  102MYC     C919609   1.752   0.423   2.646
  102MYC    H1419610   1.654   0.412   2.598
  102MYC    H1519611   1.775   0.525   2.681
  102MYC     C819612   1.750   0.333   2.770
  102MYC    H1219613   1.851   0.326   2.814
  102MYC    H1319614   1.723   0.233   2.737
  102MYC     C719615   1.661   0.394   2.880
  102MYC    H1019616   1.555   0.411   2.854
  102MYC    H1119617   1.700   0.493   2.905
  102MYC     C619618   1.677   0.305   3.004
  102MYC     H819619   1.781   0.280   3.030
  102MYC     H919620   1.627   0.212   2.973
  102MYC     C519621   1.606   0.361   3.128
  102MYC     H619622   1.612   0.276   3.198
  102MYC     H719623   1.501   0.391   3.122
  102MYC     C419624   1.673   0.479   3.201
  102MYC     H419625   1.612   0.516   3.284
  102MYC     H519626   1.684   0.565   3.134
  102MYC     C219627   1.806   0.443   3.268
  102MYC     H219628   1.795   0.338   3.298
  102MYC     O319629   1.907   0.443   3.168
  102MYC     H319630   1.932   0.537   3.159
  102MYC     C119631   1.847   0.531   3.388
  102MYC     H119632   1.772   0.524   3.468
  102MYC    C8119633   1.848   0.679   3.355
  102MYC    O8219634   1.783   0.760   3.419
  102MYC    O8319635   1.914   0.720   3.245
  102MYC   6H1519636   1.902   0.816   3.253
  102MYC    C2019637   1.984   0.491   3.446
  102MYC    H3419638   2.063   0.504   3.371
  102MYC    H3519639   2.010   0.556   3.530
  102MYC    C2119640   1.999   0.345   3.494
  102MYC    H3619641   1.900   0.303   3.514
  102MYC    H3719642   2.033   0.284   3.410
  102MYC    C2219643   2.081   0.323   3.622
  102MYC    H3819644   2.107   0.216   3.616
  102MYC    H3919645   2.169   0.388   3.622
  102MYC    C2319646   1.998   0.350   3.749
  102MYC    H4019647   1.972   0.457   3.749
  102MYC    H4119648   1.906   0.292   3.742
  102MYC    C2419649   2.081   0.339   3.879
  102MYC    H4219650   2.123   0.239   3.891
  102MYC    H4319651   2.163   0.412   3.872
  102MYC    C2519652   1.996   0.367   4.004
  102MYC    H4419653   1.962   0.471   4.006
  102MYC    H4519654   1.908   0.302   3.991
  102MYC    C2619655   2.060   0.336   4.140
  102MYC    H4619656   2.084   0.228   4.140
  102MYC    H4719657   2.148   0.401   4.140
  102MYC    C2719658   1.973   0.372   4.261
  102MYC    H4819659   1.947   0.478   4.264
  102MYC    H4919660   1.882   0.312   4.247
  102MYC    C2819661   2.050   0.322   4.384
  102MYC    H5019662   2.079   0.218   4.366
  102MYC    H5119663   2.142   0.377   4.406
  102MYC    C2919664   1.959   0.323   4.508
  102MYC    H5219665   1.932   0.426   4.533
  102MYC    H5319666   1.866   0.271   4.481
  102MYC    C3019667   2.029   0.259   4.629
  102MYC    H5419668   2.032   0.154   4.597
  102MYC    H5519669   2.133   0.289   4.641
  102MYC    C3119670   1.952   0.280   4.761
  102MYC    H5619671   1.937   0.388   4.775
  102MYC    H5719672   1.855   0.230   4.747
  102MYC    C3219673   2.024   0.222   4.884
  102MYC    H5819674   2.010   0.118   4.915
  102MYC    H5919675   2.132   0.241   4.869
  102MYC    C3319676   1.985   0.303   5.009
  102MYC    H6019677   2.028   0.404   5.007
  102MYC    H6119678   1.876   0.314   5.016
  102MYC    C3419679   2.028   0.234   5.139
  102MYC    H6219680   1.978   0.138   5.160
  102MYC    H6319681   2.133   0.205   5.121
  102MYC    C3519682   2.013   0.314   5.269
  102MYC    H6419683   2.089   0.393   5.259
  102MYC    H6519684   1.919   0.370   5.269
  102MYC    C3619685   2.051   0.241   5.399
  102MYC    H6619686   1.984   0.155   5.409
  102MYC    H6719687   2.152   0.201   5.393
  102MYC    C3719688   2.043   0.331   5.523
  102MYC    H6819689   2.088   0.430   5.511
  102MYC    H6919690   1.935   0.346   5.533
  102MYC    C3819691   2.098   0.264   5.650
  102MYC    H7019692   2.076   0.157   5.634
  102MYC    H7119693   2.208   0.270   5.647
  102MYC    C3919694   2.030   0.315   5.778
  102MYC    H7219695   2.021   0.425   5.777
  102MYC    H7319696   1.928   0.278   5.794
  102MYC    C4019697   2.096   0.283   5.913
  102MYC    H7419698   2.076   0.178   5.937
  102MYC    H7519699   2.204   0.297   5.900
  102MYC    C4119700   2.029   0.372   6.019
  102MYC    H7619701   2.047   0.476   5.987
  102MYC    H7719702   1.921   0.358   6.016
  102MYC    C4219703   2.102   0.360   6.154
  102MYC    H7819704   2.160   0.268   6.168
  102MYC    H7919705   2.178   0.439   6.148
  102MYC    C4319706   2.007   0.386   6.272
  102MYC    H8019707   1.998   0.487   6.315
  102MYC    H8119708   2.009   0.304   6.344
  102MYC    H8219709   1.905   0.381   6.231
  103MYC   5H1519710   2.005   1.137   6.149
  103MYC    C8019711   1.924   1.128   6.075
  103MYC   3H1519712   1.872   1.034   6.095
  103MYC   4H1519713   1.857   1.214   6.094
  103MYC    C7919714   1.991   1.141   5.938
  103MYC   1H1519715   2.075   1.070   5.932
  103MYC   2H1519716   2.037   1.239   5.924
  103MYC    C7819717   1.895   1.108   5.822
  103MYC   9H1419718   1.803   1.166   5.840
  103MYC   0H1519719   1.873   1.002   5.805
  103MYC    C7719720   1.956   1.155   5.689
  103MYC   7H1419721   2.053   1.105   5.684
  103MYC   8H1419722   1.984   1.261   5.693
  103MYC    C7619723   1.866   1.135   5.566
  103MYC   5H1419724   1.782   1.205   5.576
  103MYC   6H1419725   1.819   1.036   5.562
  103MYC    C7519726   1.944   1.158   5.435
  103MYC   3H1419727   2.026   1.085   5.436
  103MYC   4H1419728   1.983   1.259   5.421
  103MYC    C7419729   1.857   1.129   5.312
  103MYC   1H1419730   1.776   1.203   5.300
  103MYC   2H1419731   1.813   1.029   5.323
  103MYC    C7319732   1.943   1.134   5.186
  103MYC   9H1319733   2.031   1.068   5.198
  103MYC   0H1419734   1.982   1.236   5.175
  103MYC    C7219735   1.864   1.105   5.057
  103MYC   7H1319736   1.772   1.164   5.065
  103MYC   8H1319737   1.846   0.997   5.059
  103MYC    C7119738   1.950   1.155   4.939
  103MYC   5H1319739   2.048   1.109   4.949
  103MYC   6H1319740   1.963   1.262   4.961
  103MYC    C7019741   1.887   1.121   4.803
  103MYC   3H1319742   1.792   1.170   4.779
  103MYC   4H1319743   1.870   1.013   4.791
  103MYC    C6919744   1.993   1.149   4.695
  103MYC   1H1319745   2.079   1.085   4.719
  103MYC   2H1319746   2.037   1.250   4.698
  103MYC    C6819747   1.930   1.134   4.555
  103MYC   9H1219748   1.834   1.187   4.557
  103MYC   0H1319749   1.904   1.030   4.534
  103MYC    C6719750   2.018   1.187   4.439
  103MYC   7H1219751   2.101   1.118   4.422
  103MYC   8H1219752   2.059   1.283   4.470
  103MYC    C6619753   1.939   1.217   4.310
  103MYC   5H1219754   1.865   1.296   4.323
  103MYC   6H1219755   1.888   1.127   4.272
  103MYC    C6519756   2.040   1.248   4.198
  103MYC   3H1219757   2.115   1.169   4.187
  103MYC   4H1219758   2.088   1.340   4.233
  103MYC    C6419759   1.975   1.286   4.065
  103MYC   1H1219760   2.019   1.375   4.019
  103MYC   2H1219761   1.869   1.310   4.080
  103MYC    C6319762   1.971   1.171   3.963
  103MYC   9H1119763   1.897   1.094   3.989
  103MYC   0H1219764   2.067   1.117   3.973
  103MYC    C6219765   1.959   1.203   3.813
  103MYC   7H1119766   2.031   1.284   3.795
  103MYC   8H1119767   1.859   1.242   3.789
  103MYC    C6119768   1.981   1.094   3.707
  103MYC   5H1119769   1.911   1.009   3.709
  103MYC   6H1119770   2.081   1.049   3.721
  103MYC    C6019771   1.969   1.157   3.569
  103MYC   4H1119772   2.013   1.256   3.557
  103MYC    C5819773   1.963   1.076   3.442
  103MYC   1H1119774   1.989   0.971   3.451
  103MYC    C5919775   1.837   1.139   3.498
  103MYC   2H1119776   1.802   1.217   3.431
  103MYC   3H1119777   1.762   1.088   3.558
  103MYC    C5719778   2.021   1.128   3.312
  103MYC   9H1019779   2.125   1.099   3.292
  103MYC   0H1119780   2.019   1.236   3.330
  103MYC    C5619781   1.934   1.092   3.190
  103MYC   7H1019782   1.833   1.132   3.200
  103MYC   8H1019783   1.934   0.983   3.192
  103MYC    C5519784   2.011   1.146   3.068
  103MYC   5H1019785   2.101   1.087   3.046
  103MYC   6H1019786   2.038   1.248   3.097
  103MYC    C5419787   1.921   1.163   2.944
  103MYC   3H1019788   1.826   1.210   2.970
  103MYC   4H1019789   1.904   1.060   2.911
  103MYC    C5319790   1.996   1.237   2.832
  103MYC   1H1019791   2.089   1.179   2.822
  103MYC   2H1019792   2.006   1.344   2.853
  103MYC    C5219793   1.919   1.226   2.699
  103MYC    H9919794   1.823   1.276   2.717
  103MYC   0H1019795   1.905   1.119   2.684
  103MYC    C5119796   2.000   1.292   2.586
  103MYC    H9719797   2.078   1.220   2.557
  103MYC    H9819798   2.049   1.381   2.627
  103MYC    C5019799   1.904   1.312   2.467
  103MYC    H9519800   1.809   1.358   2.497
  103MYC    H9619801   1.885   1.211   2.428
  103MYC    C4919802   1.961   1.399   2.354
  103MYC    H9319803   2.045   1.346   2.306
  103MYC    H9419804   2.001   1.495   2.386
  103MYC    C4819805   1.855   1.403   2.242
  103MYC    H9119806   1.791   1.488   2.271
  103MYC    H9219807   1.790   1.314   2.244
  103MYC    C4719808   1.900   1.415   2.096
  103MYC    H8919809   1.949   1.323   2.059
  103MYC    H9019810   1.983   1.486   2.099
  103MYC    C4619811   1.787   1.449   1.998
  103MYC    H8719812   1.718   1.518   2.048
  103MYC    H8819813   1.733   1.354   1.987
  103MYC    C4519814   1.832   1.499   1.860
  103MYC    H8519815   1.902   1.427   1.816
  103MYC    H8619816   1.878   1.598   1.873
  103MYC    C4419817   1.719   1.513   1.756
  103MYC    H8319818   1.761   1.570   1.672
  103MYC    H8419819   1.637   1.569   1.802
  103MYC    C1819820   1.669   1.384   1.692
  103MYC    H3119821   1.725   1.348   1.605
  103MYC    C1719822   1.580   1.297   1.776
  103MYC    H3019823   1.559   1.318   1.880
  103MYC    C1919824   1.521   1.380   1.665
  103MYC    H3219825   1.451   1.451   1.708
  103MYC    H3319826   1.493   1.334   1.570
  103MYC    C1619827   1.591   1.146   1.760
  103MYC    H2819828   1.693   1.117   1.789
  103MYC    H2919829   1.582   1.121   1.654
  103MYC    C1519830   1.501   1.056   1.847
  103MYC    H2619831   1.400   1.098   1.837
  103MYC    H2719832   1.527   1.067   1.953
  103MYC    C1419833   1.497   0.910   1.800
  103MYC    H2419834   1.601   0.877   1.785
  103MYC    H2519835   1.451   0.900   1.701
  103MYC    C1319836   1.429   0.809   1.895
  103MYC    H2219837   1.408   0.722   1.831
  103MYC    H2319838   1.329   0.846   1.921
  103MYC    C1219839   1.515   0.766   2.014
  103MYC    H2019840   1.545   0.854   2.072
  103MYC    H2119841   1.605   0.716   1.977
  103MYC    C1119842   1.442   0.661   2.100
  103MYC    H1819843   1.512   0.584   2.135
  103MYC    H1919844   1.364   0.606   2.046
  103MYC    C1019845   1.380   0.726   2.225
  103MYC    H1619846   1.303   0.659   2.266
  103MYC    H1719847   1.338   0.824   2.198
  103MYC     C919848   1.487   0.737   2.334
  103MYC    H1419849   1.564   0.805   2.296
  103MYC    H1519850   1.532   0.639   2.355
  103MYC     C819851   1.444   0.792   2.471
  103MYC    H1219852   1.375   0.718   2.515
  103MYC    H1319853   1.387   0.883   2.447
  103MYC     C719854   1.562   0.812   2.567
  103MYC    H1019855   1.637   0.881   2.525
  103MYC    H1119856   1.614   0.715   2.568
  103MYC     C619857   1.513   0.850   2.708
  103MYC     H819858   1.435   0.779   2.739
  103MYC     H919859   1.453   0.941   2.706
  103MYC     C519860   1.620   0.842   2.818
  103MYC     H619861   1.696   0.918   2.796
  103MYC     H719862   1.667   0.742   2.816
  103MYC     C419863   1.565   0.840   2.961
  103MYC     H419864   1.643   0.802   3.028
  103MYC     H519865   1.493   0.758   2.957
  103MYC     C219866   1.511   0.966   3.032
  103MYC     H219867   1.596   1.034   3.049
  103MYC     O319868   1.424   1.043   2.951
  103MYC     H319869   1.357   0.982   2.916
  103MYC     C119870   1.444   0.930   3.166
  103MYC     H119871   1.520   0.866   3.213
  103MYC    C8119872   1.330   0.831   3.153
  103MYC    O8219873   1.332   0.716   3.195
  103MYC    O8319874   1.220   0.886   3.097
  103MYC   6H1519875   1.147   0.828   3.124
  103MYC    C2019876   1.424   1.048   3.263
  103MYC    H3419877   1.518   1.105   3.257
  103MYC    H3519878   1.345   1.115   3.229
  103MYC    C2119879   1.371   0.998   3.399
  103MYC    H3619880   1.266   0.969   3.387
  103MYC    H3719881   1.423   0.907   3.432
  103MYC    C2219882   1.391   1.097   3.515
  103MYC    H3819883   1.498   1.121   3.517
  103MYC    H3919884   1.338   1.188   3.484
  103MYC    C2319885   1.341   1.041   3.650
  103MYC    H4019886   1.233   1.023   3.646
  103MYC    H4119887   1.391   0.945   3.669
  103MYC    C2419888   1.369   1.136   3.767
  103MYC    H4219889   1.455   1.202   3.748
  103MYC    H4319890   1.277   1.191   3.791
  103MYC    C2519891   1.408   1.051   3.890
  103MYC    H4419892   1.345   0.963   3.907
  103MYC    H4519893   1.512   1.020   3.877
  103MYC    C2619894   1.395   1.128   4.022
  103MYC    H4619895   1.455   1.219   4.032
  103MYC    H4719896   1.290   1.161   4.019
  103MYC    C2719897   1.416   1.032   4.140
  103MYC    H4819898   1.339   0.954   4.133
  103MYC    H4919899   1.517   0.993   4.128
  103MYC    C2819900   1.411   1.103   4.277
  103MYC    H5019901   1.509   1.149   4.294
  103MYC    H5119902   1.327   1.173   4.282
  103MYC    C2919903   1.385   1.006   4.394
  103MYC    H5219904   1.291   0.954   4.372
  103MYC    H5319905   1.471   0.938   4.391
  103MYC    C3019906   1.374   1.082   4.527
  103MYC    H5419907   1.466   1.143   4.529
  103MYC    H5519908   1.287   1.150   4.533
  103MYC    C3119909   1.385   0.987   4.648
  103MYC    H5619910   1.291   0.933   4.658
  103MYC    H5719911   1.460   0.909   4.630
  103MYC    C3219912   1.403   1.054   4.785
  103MYC    H5819913   1.485   1.127   4.780
  103MYC    H5919914   1.309   1.108   4.796
  103MYC    C3319915   1.418   0.951   4.899
  103MYC    H6019916   1.342   0.873   4.888
  103MYC    H6119917   1.517   0.902   4.894
  103MYC    C3419918   1.406   1.009   5.041
  103MYC    H6219919   1.474   1.095   5.048
  103MYC    H6319920   1.302   1.043   5.051
  103MYC    C3519921   1.433   0.907   5.153
  103MYC    H6419922   1.364   0.826   5.127
  103MYC    H6519923   1.534   0.865   5.155
  103MYC    C3619924   1.393   0.973   5.286
  103MYC    H6619925   1.405   1.081   5.277
  103MYC    H6719926   1.289   0.941   5.302
  103MYC    C3719927   1.479   0.934   5.408
  103MYC    H6819928   1.480   0.825   5.424
  103MYC    H6919929   1.585   0.951   5.387
  103MYC    C3819930   1.430   1.009   5.533
  103MYC    H7019931   1.449   1.116   5.517
  103MYC    H7119932   1.324   0.996   5.555
  103MYC    C3919933   1.502   0.960   5.660
  103MYC    H7219934   1.505   0.851   5.657
  103MYC    H7319935   1.607   0.993   5.664
  103MYC    C4019936   1.420   0.999   5.784
  103MYC    H7419937   1.408   1.109   5.782
  103MYC    H7519938   1.319   0.958   5.779
  103MYC    C4119939   1.481   0.963   5.920
  103MYC    H7619940   1.498   0.856   5.906
  103MYC    H7719941   1.579   1.011   5.930
  103MYC    C4219942   1.378   1.004   6.027
  103MYC    H7819943   1.381   1.113   6.021
  103MYC    H7919944   1.276   0.965   6.014
  103MYC    C4319945   1.425   0.978   6.171
  103MYC    H8019946   1.351   1.006   6.246
  103MYC    H8119947   1.520   1.028   6.191
  103MYC    H8219948   1.437   0.869   6.183
  104MYC   5H1519949   1.737   1.915   6.272
  104MYC    C8019950   1.696   1.939   6.173
  104MYC   3H1519951   1.590   1.912   6.174
  104MYC   4H1519952   1.717   2.045   6.155
  104MYC    C7919953   1.767   1.849   6.071
  104MYC   1H1519954   1.763   1.741   6.092
  104MYC   2H1519955   1.872   1.883   6.069
  104MYC    C7819956   1.704   1.862   5.932
  104MYC   9H1419957   1.657   1.960   5.913
  104MYC   0H1519958   1.619   1.793   5.939
  104MYC    C7719959   1.793   1.816   5.814
  104MYC   7H1419960   1.811   1.709   5.828
  104MYC   8H1419961   1.891   1.865   5.812
  104MYC    C7619962   1.722   1.853   5.683
  104MYC   5H1419963   1.724   1.962   5.666
  104MYC   6H1419964   1.615   1.832   5.684
  104MYC    C7519965   1.779   1.789   5.555
  104MYC   3H1419966   1.760   1.681   5.554
  104MYC   4H1419967   1.888   1.802   5.552
  104MYC    C7419968   1.724   1.853   5.427
  104MYC   1H1419969   1.755   1.958   5.436
  104MYC   2H1419970   1.615   1.849   5.423
  104MYC    C7319971   1.790   1.802   5.298
  104MYC   9H1319972   1.759   1.700   5.273
  104MYC   0H1419973   1.898   1.807   5.320
  104MYC    C7219974   1.762   1.887   5.173
  104MYC   7H1319975   1.792   1.992   5.184
  104MYC   8H1319976   1.652   1.894   5.166
  104MYC    C7119977   1.822   1.832   5.042
  104MYC   5H1319978   1.798   1.726   5.033
  104MYC   6H1319979   1.932   1.832   5.041
  104MYC    C7019980   1.788   1.913   4.916
  104MYC   3H1319981   1.819   2.017   4.932
  104MYC   4H1319982   1.680   1.892   4.911
  104MYC    C6919983   1.852   1.867   4.784
  104MYC   1H1319984   1.812   1.767   4.764
  104MYC   2H1319985   1.956   1.852   4.813
  104MYC    C6819986   1.844   1.957   4.659
  104MYC   9H1219987   1.881   2.058   4.679
  104MYC   0H1319988   1.739   1.954   4.629
  104MYC    C6719989   1.916   1.897   4.536
  104MYC   7H1219990   1.902   1.788   4.538
  104MYC   8H1219991   2.024   1.911   4.545
  104MYC    C6619992   1.868   1.954   4.402
  104MYC   5H1219993   1.890   2.061   4.388
  104MYC   6H1219994   1.759   1.951   4.397
  104MYC    C6519995   1.927   1.862   4.293
  104MYC   3H1219996   1.914   1.757   4.321
  104MYC   4H1219997   2.036   1.869   4.295
  104MYC    C6419998   1.865   1.884   4.154
  104MYC   1H1219999   1.914   1.970   4.105
  104MYC   2H1220000   1.760   1.911   4.172
  104MYC    C6320001   1.875   1.763   4.059
  104MYC   9H1120002   1.791   1.695   4.078
  104MYC   0H1220003   1.966   1.704   4.075
  104MYC    C6220004   1.864   1.802   3.911
  104MYC   7H1120005   1.964   1.841   3.886
  104MYC   8H1120006   1.788   1.880   3.898
  104MYC    C6120007   1.828   1.688   3.814
  104MYC   5H1120008   1.726   1.659   3.844
  104MYC   6H1120009   1.893   1.602   3.836
  104MYC    C6020010   1.828   1.728   3.668
  104MYC   4H1120011   1.893   1.813   3.646
  104MYC    C5820012   1.821   1.625   3.558
  104MYC   1H1120013   1.818   1.523   3.594
  104MYC    C5920014   1.702   1.715   3.585
  104MYC   2H1120015   1.688   1.779   3.498
  104MYC   3H1120016   1.613   1.664   3.619
  104MYC    C5720017   1.907   1.638   3.433
  104MYC   9H1020018   1.976   1.553   3.429
  104MYC   0H1120019   1.961   1.734   3.439
  104MYC    C5620020   1.825   1.618   3.305
  104MYC   7H1020021   1.730   1.672   3.308
  104MYC   8H1020022   1.795   1.512   3.310
  104MYC    C5520023   1.905   1.642   3.176
  104MYC   5H1020024   1.982   1.565   3.170
  104MYC   6H1020025   1.960   1.737   3.176
  104MYC    C5420026   1.811   1.634   3.054
  104MYC   3H1020027   1.726   1.703   3.060
  104MYC   4H1020028   1.769   1.533   3.045
  104MYC    C5320029   1.889   1.663   2.925
  104MYC   1H1020030   1.937   1.570   2.892
  104MYC   2H1020031   1.967   1.739   2.943
  104MYC    C5220032   1.802   1.709   2.808
  104MYC    H9920033   1.755   1.806   2.828
  104MYC   0H1020034   1.719   1.639   2.797
  104MYC    C5120035   1.874   1.723   2.672
  104MYC    H9720036   1.896   1.624   2.631
  104MYC    H9820037   1.961   1.790   2.677
  104MYC    C5020038   1.776   1.795   2.577
  104MYC    H9520039   1.755   1.893   2.622
  104MYC    H9620040   1.688   1.733   2.561
  104MYC    C4920041   1.833   1.827   2.438
  104MYC    H9320042   1.867   1.730   2.398
  104MYC    H9420043   1.915   1.898   2.446
  104MYC    C4820044   1.725   1.883   2.344
  104MYC    H9120045   1.686   1.980   2.380
  104MYC    H9220046   1.646   1.807   2.347
  104MYC    C4720047   1.777   1.900   2.200
  104MYC    H8920048   1.810   1.800   2.173
  104MYC    H9020049   1.861   1.971   2.195
  104MYC    C4620050   1.663   1.942   2.105
  104MYC    H8720051   1.641   2.048   2.122
  104MYC    H8820052   1.577   1.875   2.122
  104MYC    C4520053   1.709   1.940   1.958
  104MYC    H8520054   1.711   1.835   1.927
  104MYC    H8620055   1.812   1.976   1.951
  104MYC    C4420056   1.614   2.013   1.862
  104MYC    H8320057   1.674   2.032   1.772
  104MYC    H8420058   1.589   2.110   1.905
  104MYC    C1820059   1.489   1.931   1.830
  104MYC    H3120060   1.482   1.840   1.888
  104MYC    C1720061   1.365   2.004   1.787
  104MYC    H3020062   1.370   2.110   1.763
  104MYC    C1920063   1.442   1.921   1.688
  104MYC    H3220064   1.492   1.980   1.611
  104MYC    H3320065   1.406   1.824   1.656
  104MYC    C1620066   1.225   1.948   1.809
  104MYC    H2820067   1.227   1.844   1.843
  104MYC    H2920068   1.175   1.947   1.711
  104MYC    C1520069   1.143   2.042   1.899
  104MYC    H2620070   1.039   2.007   1.894
  104MYC    H2720071   1.144   2.144   1.858
  104MYC    C1420072   1.196   2.053   2.043
  104MYC    H2420073   1.157   2.143   2.093
  104MYC    H2520074   1.305   2.063   2.034
  104MYC    C1320075   1.153   1.930   2.124
  104MYC    H2220076   1.195   1.843   2.074
  104MYC    H2320077   1.044   1.917   2.119
  104MYC    C1220078   1.209   1.934   2.267
  104MYC    H2020079   1.187   2.028   2.320
  104MYC    H2120080   1.319   1.938   2.260
  104MYC    C1120081   1.166   1.816   2.356
  104MYC    H1820082   1.163   1.725   2.294
  104MYC    H1920083   1.064   1.835   2.391
  104MYC    C1020084   1.265   1.790   2.471
  104MYC    H1620085   1.292   1.888   2.514
  104MYC    H1720086   1.360   1.749   2.434
  104MYC     C920087   1.209   1.703   2.585
  104MYC    H1420088   1.191   1.603   2.544
  104MYC    H1520089   1.107   1.723   2.621
  104MYC     C820090   1.322   1.693   2.689
  104MYC    H1220091   1.340   1.792   2.733
  104MYC    H1320092   1.418   1.666   2.645
  104MYC     C720093   1.286   1.607   2.811
  104MYC    H1020094   1.309   1.504   2.784
  104MYC    H1120095   1.178   1.611   2.830
  104MYC     C620096   1.357   1.649   2.941
  104MYC     H820097   1.348   1.757   2.959
  104MYC     H920098   1.466   1.640   2.931
  104MYC     C520099   1.311   1.567   3.063
  104MYC     H620100   1.391   1.549   3.137
  104MYC     H720101   1.285   1.469   3.021
  104MYC     C420102   1.190   1.629   3.135
  104MYC     H420103   1.116   1.550   3.152
  104MYC     H520104   1.139   1.688   3.058
  104MYC     C220105   1.221   1.713   3.260
  104MYC     H220106   1.244   1.644   3.342
  104MYC     O320107   1.339   1.791   3.242
  104MYC     H320108   1.324   1.885   3.263
  104MYC     C120109   1.105   1.795   3.318
  104MYC     H120110   1.021   1.725   3.325
  104MYC    C8120111   1.057   1.914   3.235
  104MYC    O8220112   1.092   1.939   3.121
  104MYC    O8320113   0.957   1.988   3.287
  104MYC   6H1520114   0.932   2.059   3.226
  104MYC    C2020115   1.139   1.841   3.461
  104MYC    H3420116   1.244   1.870   3.461
  104MYC    H3520117   1.074   1.928   3.477
  104MYC    C2120118   1.110   1.741   3.575
  104MYC    H3620119   1.001   1.735   3.588
  104MYC    H3720120   1.136   1.637   3.552
  104MYC    C2220121   1.174   1.792   3.705
  104MYC    H3820122   1.274   1.831   3.683
  104MYC    H3920123   1.110   1.869   3.751
  104MYC    C2320124   1.188   1.684   3.814
  104MYC    H4020125   1.088   1.646   3.839
  104MYC    H4120126   1.243   1.593   3.788
  104MYC    C2420127   1.253   1.743   3.940
  104MYC    H4220128   1.353   1.782   3.916
  104MYC    H4320129   1.198   1.835   3.966
  104MYC    C2520130   1.259   1.641   4.055
  104MYC    H4420131   1.160   1.599   4.070
  104MYC    H4520132   1.332   1.560   4.042
  104MYC    C2620133   1.288   1.712   4.188
  104MYC    H4620134   1.387   1.759   4.182
  104MYC    H4720135   1.209   1.788   4.199
  104MYC    C2720136   1.279   1.623   4.313
  104MYC    H4820137   1.190   1.560   4.303
  104MYC    H4920138   1.370   1.563   4.319
  104MYC    C2820139   1.253   1.707   4.440
  104MYC    H5020140   1.324   1.790   4.438
  104MYC    H5120141   1.158   1.761   4.432
  104MYC    C2920142   1.278   1.617   4.562
  104MYC    H5220143   1.213   1.528   4.560
  104MYC    H5320144   1.381   1.580   4.564
  104MYC    C3020145   1.260   1.693   4.695
  104MYC    H5420146   1.338   1.769   4.695
  104MYC    H5520147   1.170   1.755   4.687
  104MYC    C3120148   1.262   1.617   4.828
  104MYC    H5620149   1.169   1.562   4.845
  104MYC    H5720150   1.350   1.551   4.831
  104MYC    C3220151   1.272   1.717   4.944
  104MYC    H5820152   1.366   1.774   4.939
  104MYC    H5920153   1.184   1.778   4.921
  104MYC    C3320154   1.253   1.660   5.085
  104MYC    H6020155   1.182   1.576   5.085
  104MYC    H6120156   1.348   1.631   5.130
  104MYC    C3420157   1.197   1.764   5.184
  104MYC    H6220158   1.230   1.864   5.152
  104MYC    H6320159   1.089   1.768   5.168
  104MYC    C3520160   1.238   1.745   5.331
  104MYC    H6420161   1.230   1.640   5.360
  104MYC    H6520162   1.345   1.765   5.346
  104MYC    C3620163   1.140   1.824   5.419
  104MYC    H6620164   1.141   1.930   5.389
  104MYC    H6720165   1.042   1.777   5.404
  104MYC    C3720166   1.181   1.813   5.567
  104MYC    H6820167   1.190   1.705   5.583
  104MYC    H6920168   1.285   1.845   5.578
  104MYC    C3820169   1.080   1.867   5.671
  104MYC    H7020170   1.049   1.964   5.631
  104MYC    H7120171   0.996   1.797   5.672
  104MYC    C3920172   1.156   1.864   5.804
  104MYC    H7220173   1.183   1.761   5.827
  104MYC    H7320174   1.253   1.915   5.798
  104MYC    C4020175   1.092   1.941   5.921
  104MYC    H7420176   1.080   2.043   5.882
  104MYC    H7520177   0.987   1.911   5.933
  104MYC    C4120178   1.162   1.928   6.058
  104MYC    H7620179   1.170   1.823   6.088
  104MYC    H7720180   1.266   1.958   6.041
  104MYC    C4220181   1.090   1.997   6.175
  104MYC    H7820182   1.060   2.102   6.162
  104MYC    H7920183   0.995   1.946   6.191
  104MYC    C4320184   1.172   1.987   6.305
  104MYC    H8020185   1.106   2.004   6.391
  104MYC    H8120186   1.246   2.067   6.318
  104MYC    H8220187   1.225   1.892   6.322
  105MYC   5H1520188   1.610   2.693   6.145
  105MYC    C8020189   1.591   2.648   6.046
  105MYC   3H1520190   1.636   2.548   6.046
  105MYC   4H1520191   1.483   2.630   6.037
  105MYC    C7920192   1.655   2.729   5.932
  105MYC   1H1520193   1.758   2.693   5.923
  105MYC   2H1520194   1.663   2.836   5.954
  105MYC    C7820195   1.582   2.698   5.800
  105MYC   9H1420196   1.475   2.723   5.808
  105MYC   0H1520197   1.591   2.591   5.775
  105MYC    C7720198   1.650   2.762   5.678
  105MYC   7H1420199   1.757   2.737   5.672
  105MYC   8H1420200   1.637   2.868   5.706
  105MYC    C7620201   1.589   2.712   5.546
  105MYC   5H1420202   1.482   2.691   5.557
  105MYC   6H1420203   1.637   2.616   5.524
  105MYC    C7520204   1.609   2.804   5.424
  105MYC   3H1420205   1.718   2.818   5.413
  105MYC   4H1420206   1.569   2.902   5.449
  105MYC    C7420207   1.543   2.738   5.302
  105MYC   1H1420208   1.435   2.757   5.305
  105MYC   2H1420209   1.551   2.628   5.306
  105MYC    C7320210   1.607   2.780   5.169
  105MYC   9H1320211   1.710   2.744   5.161
  105MYC   0H1420212   1.609   2.889   5.171
  105MYC    C7220213   1.526   2.734   5.045
  105MYC   7H1320214   1.441   2.803   5.044
  105MYC   8H1320215   1.486   2.634   5.065
  105MYC    C7120216   1.603   2.750   4.913
  105MYC   5H1320217   1.690   2.682   4.914
  105MYC   6H1320218   1.654   2.846   4.913
  105MYC    C7020219   1.515   2.728   4.789
  105MYC   3H1320220   1.412   2.765   4.803
  105MYC   4H1320221   1.501   2.619   4.795
  105MYC    C6920222   1.587   2.767   4.659
  105MYC   1H1320223   1.657   2.685   4.637
  105MYC   2H1320224   1.641   2.861   4.671
  105MYC    C6820225   1.488   2.779   4.542
  105MYC   9H1220226   1.430   2.871   4.559
  105MYC   0H1320227   1.409   2.702   4.541
  105MYC    C6720228   1.554   2.795   4.404
  105MYC   7H1220229   1.584   2.695   4.369
  105MYC   8H1220230   1.650   2.846   4.414
  105MYC    C6620231   1.468   2.854   4.291
  105MYC   5H1220232   1.421   2.949   4.320
  105MYC   6H1220233   1.387   2.782   4.275
  105MYC    C6520234   1.545   2.878   4.161
  105MYC   3H1220235   1.607   2.790   4.137
  105MYC   4H1220236   1.612   2.960   4.188
  105MYC    C6420237   1.457   2.916   4.040
  105MYC   1H1220238   1.415   3.013   4.068
  105MYC   2H1220239   1.377   2.842   4.032
  105MYC    C6320240   1.547   2.944   3.918
  105MYC   9H1120241   1.606   2.853   3.899
  105MYC   0H1220242   1.617   3.021   3.949
  105MYC    C6220243   1.458   2.984   3.799
  105MYC   7H1120244   1.433   3.090   3.810
  105MYC   8H1120245   1.362   2.932   3.794
  105MYC    C6120246   1.532   2.967   3.664
  105MYC   5H1120247   1.546   2.859   3.650
  105MYC   6H1120248   1.628   3.019   3.668
  105MYC    C6020249   1.443   3.017   3.551
  105MYC   4H1120250   1.427   3.124   3.560
  105MYC    C5820251   1.459   2.961   3.412
  105MYC   1H1120252   1.531   2.879   3.410
  105MYC    C5920253   1.331   2.937   3.489
  105MYC   2H1120254   1.243   2.992   3.457
  105MYC   3H1120255   1.308   2.834   3.512
  105MYC    C5720256   1.469   3.054   3.293
  105MYC   9H1020257   1.576   3.078   3.283
  105MYC   0H1120258   1.412   3.147   3.303
  105MYC    C5620259   1.431   2.976   3.166
  105MYC   7H1020260   1.324   2.959   3.155
  105MYC   8H1020261   1.480   2.879   3.181
  105MYC    C5520262   1.485   3.042   3.037
  105MYC   5H1020263   1.594   3.031   3.046
  105MYC   6H1020264   1.460   3.147   3.053
  105MYC    C5420265   1.426   2.982   2.909
  105MYC   3H1020266   1.320   3.011   2.899
  105MYC   4H1020267   1.414   2.875   2.931
  105MYC    C5320268   1.512   3.002   2.784
  105MYC   1H1020269   1.619   2.989   2.805
  105MYC   2H1020270   1.489   3.105   2.756
  105MYC    C5220271   1.477   2.910   2.666
  105MYC    H9920272   1.368   2.895   2.661
  105MYC   0H1020273   1.504   2.807   2.694
  105MYC    C5120274   1.538   2.963   2.535
  105MYC    H9720275   1.648   2.968   2.539
  105MYC    H9820276   1.506   3.066   2.516
  105MYC    C5020277   1.511   2.866   2.418
  105MYC    H9520278   1.405   2.841   2.408
  105MYC    H9620279   1.565   2.775   2.448
  105MYC    C4920280   1.568   2.924   2.288
  105MYC    H9320281   1.677   2.917   2.293
  105MYC    H9420282   1.532   3.028   2.284
  105MYC    C4820283   1.519   2.848   2.163
  105MYC    H9120284   1.411   2.838   2.176
  105MYC    H9220285   1.568   2.750   2.156
  105MYC    C4720286   1.549   2.921   2.031
  105MYC    H8920287   1.656   2.947   2.036
  105MYC    H9020288   1.499   3.018   2.017
  105MYC    C4620289   1.539   2.830   1.908
  105MYC    H8720290   1.446   2.772   1.912
  105MYC    H8820291   1.631   2.771   1.898
  105MYC    C4520292   1.537   2.909   1.776
  105MYC    H8520293   1.628   2.970   1.771
  105MYC    H8620294   1.450   2.976   1.779
  105MYC    C4420295   1.535   2.813   1.656
  105MYC    H8320296   1.522   2.884   1.574
  105MYC    H8420297   1.453   2.743   1.678
  105MYC    C1820298   1.670   2.747   1.633
  105MYC    H3120299   1.750   2.809   1.674
  105MYC    C1720300   1.681   2.597   1.624
  105MYC    H3020301   1.589   2.540   1.634
  105MYC    C1920302   1.690   2.681   1.499
  105MYC    H3220303   1.605   2.676   1.432
  105MYC    H3320304   1.787   2.697   1.453
  105MYC    C1620305   1.803   2.516   1.664
  105MYC    H2820306   1.888   2.577   1.697
  105MYC    H2920307   1.845   2.461   1.580
  105MYC    C1520308   1.781   2.413   1.777
  105MYC    H2620309   1.879   2.368   1.798
  105MYC    H2720310   1.714   2.331   1.750
  105MYC    C1420311   1.723   2.472   1.907
  105MYC    H2420312   1.629   2.521   1.880
  105MYC    H2520313   1.788   2.552   1.944
  105MYC    C1320314   1.693   2.367   2.014
  105MYC    H2220315   1.761   2.282   1.998
  105MYC    H2320316   1.591   2.330   2.001
  105MYC    C1220317   1.693   2.411   2.162
  105MYC    H2020318   1.616   2.483   2.190
  105MYC    H2120319   1.784   2.469   2.178
  105MYC    C1120320   1.709   2.304   2.271
  105MYC    H1820321   1.781   2.340   2.346
  105MYC    H1920322   1.744   2.210   2.227
  105MYC    C1020323   1.575   2.278   2.341
  105MYC    H1620324   1.553   2.174   2.366
  105MYC    H1720325   1.498   2.305   2.266
  105MYC     C920326   1.558   2.366   2.465
  105MYC    H1420327   1.455   2.406   2.469
  105MYC    H1520328   1.624   2.454   2.463
  105MYC     C820329   1.569   2.293   2.600
  105MYC    H1220330   1.656   2.228   2.588
  105MYC    H1320331   1.481   2.228   2.607
  105MYC     C720332   1.594   2.377   2.727
  105MYC    H1020333   1.519   2.455   2.744
  105MYC    H1120334   1.691   2.426   2.710
  105MYC     C620335   1.601   2.275   2.842
  105MYC     H820336   1.659   2.185   2.815
  105MYC     H920337   1.499   2.242   2.864
  105MYC     C520338   1.663   2.340   2.966
  105MYC     H620339   1.635   2.445   2.980
  105MYC     H720340   1.772   2.348   2.959
  105MYC     C420341   1.629   2.259   3.093
  105MYC     H420342   1.723   2.268   3.150
  105MYC     H520343   1.619   2.153   3.065
  105MYC     C220344   1.510   2.317   3.170
  105MYC     H220345   1.542   2.422   3.181
  105MYC     O320346   1.389   2.307   3.095
  105MYC     H320347   1.363   2.214   3.102
  105MYC     C120348   1.492   2.254   3.309
  105MYC     H120349   1.592   2.266   3.354
  105MYC    C8120350   1.471   2.103   3.299
  105MYC    O8220351   1.378   2.051   3.239
  105MYC    O8320352   1.545   2.033   3.387
  105MYC   6H1520353   1.511   1.942   3.384
  105MYC    C2020354   1.389   2.331   3.393
  105MYC    H3420355   1.386   2.435   3.357
  105MYC    H3520356   1.290   2.286   3.385
  105MYC    C2120357   1.417   2.333   3.545
  105MYC    H3620358   1.521   2.367   3.558
  105MYC    H3720359   1.361   2.414   3.592
  105MYC    C2220360   1.382   2.209   3.629
  105MYC    H3820361   1.280   2.213   3.668
  105MYC    H3920362   1.375   2.122   3.562
  105MYC    C2320363   1.480   2.172   3.741
  105MYC    H4020364   1.554   2.103   3.697
  105MYC    H4120365   1.535   2.265   3.761
  105MYC    C2420366   1.415   2.107   3.864
  105MYC    H4220367   1.320   2.161   3.876
  105MYC    H4320368   1.392   2.003   3.841
  105MYC    C2520369   1.508   2.124   3.986
  105MYC    H4420370   1.596   2.062   3.966
  105MYC    H4520371   1.538   2.229   3.989
  105MYC    C2620372   1.444   2.093   4.122
  105MYC    H4620373   1.346   2.138   4.144
  105MYC    H4720374   1.425   1.985   4.133
  105MYC    C2720375   1.526   2.119   4.249
  105MYC    H4820376   1.623   2.069   4.243
  105MYC    H4920377   1.549   2.225   4.263
  105MYC    C2820378   1.444   2.079   4.373
  105MYC    H5020379   1.338   2.105   4.360
  105MYC    H5120380   1.439   1.971   4.390
  105MYC    C2920381   1.495   2.135   4.507
  105MYC    H5220382   1.600   2.108   4.522
  105MYC    H5320383   1.487   2.245   4.514
  105MYC    C3020384   1.427   2.084   4.635
  105MYC    H5420385   1.319   2.101   4.628
  105MYC    H5520386   1.448   1.977   4.638
  105MYC    C3120387   1.485   2.144   4.765
  105MYC    H5620388   1.594   2.126   4.762
  105MYC    H5720389   1.467   2.251   4.772
  105MYC    C3220390   1.438   2.085   4.898
  105MYC    H5820391   1.328   2.075   4.896
  105MYC    H5920392   1.479   1.984   4.914
  105MYC    C3320393   1.489   2.168   5.017
  105MYC    H6020394   1.598   2.156   5.013
  105MYC    H6120395   1.477   2.277   5.013
  105MYC    C3420396   1.428   2.120   5.149
  105MYC    H6220397   1.326   2.158   5.160
  105MYC    H6320398   1.433   2.010   5.146
  105MYC    C3520399   1.503   2.175   5.272
  105MYC    H6420400   1.607   2.141   5.262
  105MYC    H6520401   1.509   2.284   5.276
  105MYC    C3620402   1.443   2.119   5.402
  105MYC    H6620403   1.333   2.123   5.408
  105MYC    H6720404   1.466   2.012   5.406
  105MYC    C3720405   1.497   2.176   5.534
  105MYC    H6820406   1.591   2.126   5.562
  105MYC    H6920407   1.536   2.278   5.519
  105MYC    C3820408   1.408   2.173   5.659
  105MYC    H7020409   1.323   2.241   5.654
  105MYC    H7120410   1.372   2.070   5.669
  105MYC    C3920411   1.487   2.224   5.781
  105MYC    H7220412   1.582   2.170   5.788
  105MYC    H7320413   1.525   2.325   5.762
  105MYC    C4020414   1.417   2.207   5.917
  105MYC    H7420415   1.312   2.239   5.918
  105MYC    H7520416   1.415   2.103   5.950
  105MYC    C4120417   1.482   2.304   6.017
  105MYC    H7620418   1.589   2.282   6.028
  105MYC    H7720419   1.463   2.409   5.990
  105MYC    C4220420   1.432   2.285   6.161
  105MYC    H7820421   1.339   2.339   6.181
  105MYC    H7920422   1.401   2.181   6.180
  105MYC    C4320423   1.541   2.324   6.262
  105MYC    H8020424   1.502   2.322   6.365
  105MYC    H8120425   1.564   2.430   6.245
  105MYC    H8220426   1.630   2.261   6.251
  106MYC   5H1520427   2.033   3.560   6.213
  106MYC    C8020428   1.935   3.549   6.165
  106MYC   3H1520429   1.897   3.450   6.192
  106MYC   4H1520430   1.869   3.620   6.215
  106MYC    C7920431   1.937   3.576   6.014
  106MYC   1H1520432   2.023   3.524   5.968
  106MYC   2H1520433   1.948   3.684   6.002
  106MYC    C7820434   1.804   3.536   5.947
  106MYC   9H1420435   1.733   3.618   5.959
  106MYC   0H1520436   1.760   3.446   5.993
  106MYC    C7720437   1.823   3.520   5.795
  106MYC   7H1420438   1.902   3.450   5.767
  106MYC   8H1420439   1.865   3.616   5.762
  106MYC    C7620440   1.688   3.494   5.726
  106MYC   5H1420441   1.646   3.594   5.709
  106MYC   6H1420442   1.613   3.443   5.787
  106MYC    C7520443   1.701   3.409   5.598
  106MYC   3H1420444   1.742   3.310   5.619
  106MYC   4H1420445   1.774   3.458   5.532
  106MYC    C7420446   1.565   3.394   5.528
  106MYC   1H1420447   1.522   3.489   5.494
  106MYC   2H1420448   1.487   3.348   5.589
  106MYC    C7320449   1.588   3.298   5.410
  106MYC   9H1320450   1.491   3.257   5.379
  106MYC   0H1420451   1.648   3.217   5.453
  106MYC    C7220452   1.653   3.365   5.287
  106MYC   7H1320453   1.762   3.373   5.302
  106MYC   8H1320454   1.610   3.465   5.277
  106MYC    C7120455   1.625   3.294   5.154
  106MYC   5H1320456   1.519   3.277   5.131
  106MYC   6H1320457   1.667   3.193   5.146
  106MYC    C7020458   1.692   3.374   5.040
  106MYC   3H1320459   1.798   3.396   5.060
  106MYC   4H1320460   1.649   3.473   5.025
  106MYC    C6920461   1.683   3.295   4.908
  106MYC   1H1320462   1.577   3.286   4.884
  106MYC   2H1320463   1.721   3.192   4.910
  106MYC    C6820464   1.762   3.358   4.792
  106MYC   9H1220465   1.862   3.313   4.786
  106MYC   0H1320466   1.778   3.465   4.810
  106MYC    C6720467   1.682   3.336   4.663
  106MYC   7H1220468   1.591   3.397   4.664
  106MYC   8H1220469   1.655   3.231   4.647
  106MYC    C6620470   1.764   3.383   4.542
  106MYC   5H1220471   1.867   3.344   4.545
  106MYC   6H1220472   1.767   3.493   4.543
  106MYC    C6520473   1.703   3.337   4.408
  106MYC   3H1220474   1.594   3.348   4.418
  106MYC   4H1220475   1.723   3.229   4.410
  106MYC    C6420476   1.761   3.413   4.288
  106MYC   1H1220477   1.847   3.351   4.261
  106MYC   2H1220478   1.799   3.514   4.309
  106MYC    C6320479   1.664   3.432   4.170
  106MYC   9H1120480   1.585   3.502   4.202
  106MYC   0H1220481   1.619   3.340   4.132
  106MYC    C6220482   1.741   3.493   4.052
  106MYC   7H1120483   1.805   3.418   4.004
  106MYC   8H1120484   1.813   3.567   4.089
  106MYC    C6120485   1.642   3.544   3.947
  106MYC   5H1120486   1.568   3.616   3.985
  106MYC   6H1120487   1.584   3.463   3.902
  106MYC    C6020488   1.720   3.594   3.826
  106MYC   4H1120489   1.825   3.572   3.842
  106MYC    C5820490   1.660   3.595   3.688
  106MYC   1H1120491   1.556   3.569   3.674
  106MYC    C5920492   1.685   3.725   3.760
  106MYC   2H1120493   1.769   3.789   3.737
  106MYC   3H1120494   1.598   3.779   3.798
  106MYC    C5720495   1.749   3.558   3.570
  106MYC   9H1020496   1.735   3.451   3.550
  106MYC   0H1120497   1.855   3.571   3.591
  106MYC    C5620498   1.699   3.619   3.438
  106MYC   7H1020499   1.737   3.721   3.423
  106MYC   8H1020500   1.590   3.622   3.443
  106MYC    C5520501   1.734   3.538   3.312
  106MYC   5H1020502   1.707   3.434   3.331
  106MYC   6H1020503   1.843   3.543   3.299
  106MYC    C5420504   1.671   3.596   3.184
  106MYC   3H1020505   1.727   3.686   3.155
  106MYC   4H1020506   1.563   3.611   3.196
  106MYC    C5320507   1.685   3.494   3.070
  106MYC   1H1020508   1.654   3.393   3.101
  106MYC   2H1020509   1.793   3.476   3.060
  106MYC    C5220510   1.637   3.544   2.933
  106MYC    H9920511   1.678   3.644   2.915
  106MYC   0H1020512   1.528   3.555   2.940
  106MYC    C5120513   1.677   3.451   2.818
  106MYC    H9720514   1.657   3.346   2.843
  106MYC    H9820515   1.786   3.458   2.808
  106MYC    C5020516   1.601   3.468   2.685
  106MYC    H9520517   1.624   3.566   2.642
  106MYC    H9620518   1.493   3.455   2.694
  106MYC    C4920519   1.661   3.378   2.575
  106MYC    H9320520   1.643   3.272   2.593
  106MYC    H9420521   1.770   3.387   2.577
  106MYC    C4820522   1.621   3.411   2.430
  106MYC    H9120523   1.654   3.512   2.404
  106MYC    H9220524   1.512   3.411   2.434
  106MYC    C4720525   1.681   3.311   2.329
  106MYC    H8920526   1.642   3.213   2.360
  106MYC    H9020527   1.789   3.300   2.345
  106MYC    C4620528   1.667   3.341   2.179
  106MYC    H8720529   1.700   3.442   2.152
  106MYC    H8820530   1.561   3.334   2.152
  106MYC    C4520531   1.745   3.235   2.100
  106MYC    H8520532   1.685   3.144   2.119
  106MYC    H8620533   1.845   3.220   2.142
  106MYC    C4420534   1.742   3.263   1.949
  106MYC    H8320535   1.805   3.192   1.894
  106MYC    H8420536   1.791   3.360   1.938
  106MYC    C1820537   1.601   3.267   1.892
  106MYC    H3120538   1.528   3.220   1.958
  106MYC    C1720539   1.540   3.384   1.819
  106MYC    H3020540   1.602   3.472   1.806
  106MYC    C1920541   1.574   3.257   1.744
  106MYC    H3220542   1.666   3.267   1.686
  106MYC    H3320543   1.492   3.202   1.698
  106MYC    C1620544   1.395   3.422   1.844
  106MYC    H2820545   1.362   3.362   1.930
  106MYC    H2920546   1.335   3.397   1.755
  106MYC    C1520547   1.369   3.561   1.904
  106MYC    H2620548   1.266   3.575   1.941
  106MYC    H2720549   1.385   3.638   1.827
  106MYC    C1420550   1.462   3.599   2.020
  106MYC    H2420551   1.566   3.574   1.996
  106MYC    H2520552   1.432   3.530   2.100
  106MYC    C1320553   1.443   3.744   2.067
  106MYC    H2220554   1.339   3.763   2.094
  106MYC    H2320555   1.458   3.814   1.983
  106MYC    C1220556   1.554   3.785   2.165
  106MYC    H2020557   1.591   3.886   2.141
  106MYC    H2120558   1.644   3.723   2.160
  106MYC    C1120559   1.502   3.785   2.310
  106MYC    H1820560   1.474   3.681   2.330
  106MYC    H1920561   1.403   3.832   2.310
  106MYC    C1020562   1.596   3.855   2.409
  106MYC    H1620563   1.616   3.958   2.375
  106MYC    H1720564   1.696   3.810   2.414
  106MYC     C920565   1.530   3.861   2.547
  106MYC    H1420566   1.511   3.756   2.573
  106MYC    H1520567   1.431   3.907   2.549
  106MYC     C820568   1.615   3.951   2.639
  106MYC    H1220569   1.629   4.054   2.604
  106MYC    H1320570   1.715   3.907   2.629
  106MYC     C720571   1.589   3.942   2.790
  106MYC    H1020572   1.673   3.996   2.837
  106MYC    H1120573   1.601   3.835   2.811
  106MYC     C620574   1.450   3.987   2.838
  106MYC     H820575   1.365   3.951   2.778
  106MYC     H920576   1.440   4.096   2.843
  106MYC     C520577   1.420   3.929   2.977
  106MYC     H620578   1.516   3.937   3.030
  106MYC     H720579   1.392   3.823   2.969
  106MYC     C420580   1.313   4.006   3.056
  106MYC     H420581   1.216   3.967   3.023
  106MYC     H520582   1.317   4.111   3.025
  106MYC     C220583   1.317   3.985   3.208
  106MYC     H220584   1.324   3.876   3.215
  106MYC     O320585   1.432   4.041   3.269
  106MYC     H320586   1.494   4.054   3.194
  106MYC     C120587   1.193   4.045   3.277
  106MYC     H120588   1.107   3.977   3.265
  106MYC    C8120589   1.142   4.172   3.211
  106MYC    O8220590   1.068   4.169   3.114
  106MYC    O8320591   1.192   4.290   3.256
  106MYC   6H1520592   1.142   4.354   3.203
  106MYC    C2020593   1.196   4.078   3.427
  106MYC    H3420594   1.280   4.147   3.445
  106MYC    H3520595   1.104   4.131   3.453
  106MYC    C2120596   1.212   3.964   3.529
  106MYC    H3620597   1.134   3.887   3.519
  106MYC    H3720598   1.313   3.922   3.522
  106MYC    C2220599   1.183   4.021   3.669
  106MYC    H3820600   1.255   4.100   3.694
  106MYC    H3920601   1.087   4.074   3.671
  106MYC    C2320602   1.181   3.923   3.788
  106MYC    H4020603   1.102   3.849   3.773
  106MYC    H4120604   1.276   3.870   3.803
  106MYC    C2420605   1.151   3.999   3.918
  106MYC    H4220606   1.208   4.092   3.929
  106MYC    H4320607   1.046   4.025   3.900
  106MYC    C2520608   1.151   3.915   4.046
  106MYC    H4420609   1.076   3.834   4.044
  106MYC    H4520610   1.251   3.871   4.041
  106MYC    C2620611   1.130   3.995   4.176
  106MYC    H4620612   1.196   4.083   4.178
  106MYC    H4720613   1.023   4.021   4.175
  106MYC    C2720614   1.157   3.893   4.288
  106MYC    H4820615   1.098   3.800   4.285
  106MYC    H4920616   1.259   3.853   4.291
  106MYC    C2820617   1.119   3.963   4.420
  106MYC    H5020618   1.168   4.060   4.437
  106MYC    H5120619   1.010   3.969   4.427
  106MYC    C2920620   1.166   3.871   4.534
  106MYC    H5220621   1.124   3.769   4.529
  106MYC    H5320622   1.275   3.861   4.538
  106MYC    C3020623   1.129   3.932   4.670
  106MYC    H5420624   1.153   4.039   4.675
  106MYC    H5520625   1.024   3.906   4.690
  106MYC    C3120626   1.209   3.859   4.779
  106MYC    H5620627   1.188   3.755   4.752
  106MYC    H5720628   1.318   3.870   4.775
  106MYC    C3220629   1.159   3.900   4.918
  106MYC    H5820630   1.175   4.008   4.929
  106MYC    H5920631   1.052   3.877   4.923
  106MYC    C3320632   1.230   3.838   5.040
  106MYC    H6020633   1.184   3.743   5.069
  106MYC    H6120634   1.334   3.809   5.022
  106MYC    C3420635   1.211   3.919   5.169
  106MYC    H6220636   1.242   4.022   5.148
  106MYC    H6320637   1.103   3.928   5.188
  106MYC    C3520638   1.288   3.858   5.287
  106MYC    H6420639   1.269   3.751   5.303
  106MYC    H6520640   1.395   3.865   5.267
  106MYC    C3620641   1.252   3.936   5.415
  106MYC    H6620642   1.267   4.043   5.402
  106MYC    H6720643   1.144   3.922   5.429
  106MYC    C3720644   1.325   3.887   5.542
  106MYC    H6820645   1.302   3.781   5.559
  106MYC    H6920646   1.433   3.888   5.524
  106MYC    C3820647   1.301   3.973   5.667
  106MYC    H7020648   1.361   4.064   5.668
  106MYC    H7120649   1.196   4.007   5.666
  106MYC    C3920650   1.334   3.891   5.793
  106MYC    H7220651   1.246   3.827   5.811
  106MYC    H7320652   1.417   3.820   5.780
  106MYC    C4020653   1.351   3.982   5.915
  106MYC    H7420654   1.433   4.048   5.887
  106MYC    H7520655   1.262   4.045   5.929
  106MYC    C4120656   1.391   3.899   6.038
  106MYC    H7620657   1.324   3.813   6.046
  106MYC    H7720658   1.493   3.864   6.017
  106MYC    C4220659   1.391   3.968   6.176
  106MYC    H7820660   1.461   4.053   6.176
  106MYC    H7920661   1.291   4.009   6.196
  106MYC    C4320662   1.428   3.864   6.283
  106MYC    H8020663   1.433   3.923   6.375
  106MYC    H8120664   1.525   3.820   6.257
  106MYC    H8220665   1.352   3.786   6.294
  107MYC   5H1520666   1.352   4.444   6.326
  107MYC    C8020667   1.310   4.400   6.235
  107MYC   3H1520668   1.326   4.292   6.235
  107MYC   4H1520669   1.204   4.420   6.255
  107MYC    C7920670   1.350   4.463   6.100
  107MYC   1H1520671   1.458   4.481   6.092
  107MYC   2H1520672   1.303   4.562   6.093
  107MYC    C7820673   1.306   4.378   5.980
  107MYC   9H1420674   1.199   4.355   5.986
  107MYC   0H1520675   1.370   4.289   5.978
  107MYC    C7720676   1.325   4.449   5.845
  107MYC   7H1420677   1.434   4.452   5.835
  107MYC   8H1420678   1.268   4.542   5.845
  107MYC    C7620679   1.271   4.357   5.734
  107MYC   5H1420680   1.164   4.339   5.746
  107MYC   6H1420681   1.328   4.264   5.745
  107MYC    C7520682   1.295   4.416   5.594
  107MYC   3H1420683   1.398   4.456   5.589
  107MYC   4H1420684   1.238   4.509   5.583
  107MYC    C7420685   1.273   4.320   5.476
  107MYC   1H1420686   1.171   4.278   5.472
  107MYC   2H1420687   1.346   4.240   5.496
  107MYC    C7320688   1.293   4.391   5.341
  107MYC   9H1320689   1.395   4.432   5.342
  107MYC   0H1420690   1.238   4.485   5.342
  107MYC    C7220691   1.273   4.307   5.214
  107MYC   7H1320692   1.164   4.294   5.204
  107MYC   8H1320693   1.333   4.216   5.229
  107MYC    C7120694   1.315   4.375   5.083
  107MYC   5H1320695   1.415   4.418   5.088
  107MYC   6H1320696   1.253   4.464   5.065
  107MYC    C7020697   1.304   4.295   4.952
  107MYC   3H1320698   1.205   4.249   4.939
  107MYC   4H1320699   1.381   4.217   4.962
  107MYC    C6920700   1.320   4.389   4.831
  107MYC   1H1320701   1.422   4.430   4.834
  107MYC   2H1320702   1.250   4.473   4.834
  107MYC    C6820703   1.301   4.317   4.697
  107MYC   9H1220704   1.196   4.283   4.696
  107MYC   0H1320705   1.372   4.233   4.697
  107MYC    C6720706   1.340   4.401   4.575
  107MYC   7H1220707   1.450   4.394   4.571
  107MYC   8H1220708   1.321   4.508   4.594
  107MYC    C6620709   1.285   4.358   4.438
  107MYC   5H1220710   1.178   4.337   4.452
  107MYC   6H1220711   1.337   4.266   4.408
  107MYC    C6520712   1.311   4.462   4.328
  107MYC   3H1220713   1.419   4.474   4.312
  107MYC   4H1220714   1.277   4.564   4.351
  107MYC    C6420715   1.244   4.419   4.197
  107MYC   1H1220716   1.136   4.420   4.217
  107MYC   2H1220717   1.278   4.317   4.175
  107MYC    C6320718   1.280   4.520   4.087
  107MYC   9H1120719   1.388   4.524   4.068
  107MYC   0H1220720   1.250   4.617   4.128
  107MYC    C6220721   1.210   4.495   3.953
  107MYC   7H1120722   1.103   4.512   3.968
  107MYC   8H1120723   1.221   4.390   3.923
  107MYC    C6120724   1.240   4.605   3.849
  107MYC   5H1120725   1.349   4.618   3.848
  107MYC   6H1120726   1.189   4.698   3.877
  107MYC    C6020727   1.195   4.561   3.711
  107MYC   4H1120728   1.090   4.532   3.704
  107MYC    C5820729   1.245   4.643   3.595
  107MYC   1H1120730   1.324   4.715   3.608
  107MYC    C5920731   1.290   4.500   3.611
  107MYC   2H1120732   1.251   4.419   3.549
  107MYC   3H1120733   1.391   4.481   3.647
  107MYC    C5720734   1.167   4.672   3.467
  107MYC   9H1020735   1.114   4.767   3.487
  107MYC   0H1120736   1.092   4.593   3.457
  107MYC    C5620737   1.254   4.688   3.342
  107MYC   7H1020738   1.330   4.609   3.348
  107MYC   8H1020739   1.305   4.785   3.337
  107MYC    C5520740   1.185   4.651   3.209
  107MYC   5H1020741   1.117   4.732   3.181
  107MYC   6H1020742   1.123   4.563   3.231
  107MYC    C5420743   1.285   4.614   3.099
  107MYC   3H1020744   1.357   4.542   3.141
  107MYC   4H1020745   1.346   4.697   3.061
  107MYC    C5320746   1.210   4.552   2.980
  107MYC   1H1020747   1.124   4.618   2.961
  107MYC   2H1020748   1.173   4.454   3.011
  107MYC    C5220749   1.281   4.525   2.846
  107MYC    H9920750   1.368   4.459   2.844
  107MYC   0H1020751   1.321   4.622   2.812
  107MYC    C5120752   1.181   4.486   2.737
  107MYC    H9720753   1.097   4.552   2.709
  107MYC    H9820754   1.134   4.396   2.777
  107MYC    C5020755   1.256   4.433   2.614
  107MYC    H9520756   1.318   4.347   2.645
  107MYC    H9620757   1.320   4.510   2.569
  107MYC    C4920758   1.164   4.388   2.499
  107MYC    H9320759   1.112   4.475   2.457
  107MYC    H9420760   1.080   4.330   2.538
  107MYC    C4820761   1.243   4.312   2.391
  107MYC    H9120762   1.249   4.206   2.416
  107MYC    H9220763   1.346   4.350   2.391
  107MYC    C4720764   1.169   4.321   2.256
  107MYC    H8920765   1.153   4.423   2.220
  107MYC    H9020766   1.071   4.278   2.278
  107MYC    C4620767   1.230   4.252   2.132
  107MYC    H8720768   1.256   4.149   2.160
  107MYC    H8820769   1.323   4.304   2.105
  107MYC    C4520770   1.143   4.248   2.006
  107MYC    H8520771   1.130   4.349   1.965
  107MYC    H8620772   1.039   4.221   2.027
  107MYC    C4420773   1.185   4.148   1.897
  107MYC    H8320774   1.093   4.137   1.838
  107MYC    H8420775   1.207   4.046   1.933
  107MYC    C1820776   1.284   4.200   1.795
  107MYC    H3120777   1.276   4.308   1.780
  107MYC    C1720778   1.421   4.138   1.787
  107MYC    H3020779   1.450   4.045   1.836
  107MYC    C1920780   1.320   4.112   1.678
  107MYC    H3220781   1.286   4.010   1.666
  107MYC    H3320782   1.333   4.162   1.582
  107MYC    C1620783   1.543   4.217   1.745
  107MYC    H2820784   1.525   4.324   1.727
  107MYC    H2920785   1.575   4.182   1.646
  107MYC    C1520786   1.660   4.197   1.842
  107MYC    H2620787   1.747   4.252   1.803
  107MYC    H2720788   1.699   4.094   1.834
  107MYC    C1420789   1.630   4.242   1.986
  107MYC    H2420790   1.578   4.159   2.037
  107MYC    H2520791   1.558   4.325   1.988
  107MYC    C1320792   1.756   4.276   2.068
  107MYC    H2220793   1.817   4.343   2.008
  107MYC    H2320794   1.805   4.181   2.093
  107MYC    C1220795   1.729   4.355   2.197
  107MYC    H2020796   1.664   4.308   2.272
  107MYC    H2120797   1.672   4.445   2.168
  107MYC    C1120798   1.862   4.400   2.261
  107MYC    H1820799   1.851   4.501   2.302
  107MYC    H1920800   1.934   4.412   2.179
  107MYC    C1020801   1.912   4.314   2.378
  107MYC    H1620802   2.018   4.335   2.398
  107MYC    H1720803   1.902   4.206   2.360
  107MYC     C920804   1.829   4.350   2.502
  107MYC    H1420805   1.724   4.325   2.484
  107MYC    H1520806   1.826   4.460   2.511
  107MYC     C820807   1.882   4.285   2.631
  107MYC    H1220808   1.983   4.323   2.652
  107MYC    H1320809   1.888   4.176   2.618
  107MYC     C720810   1.773   4.304   2.738
  107MYC    H1020811   1.708   4.216   2.744
  107MYC    H1120812   1.706   4.384   2.705
  107MYC     C620813   1.823   4.342   2.878
  107MYC     H820814   1.884   4.432   2.866
  107MYC     H920815   1.886   4.259   2.912
  107MYC     C520816   1.703   4.366   2.972
  107MYC     H620817   1.630   4.285   2.958
  107MYC     H720818   1.644   4.455   2.946
  107MYC     C420819   1.745   4.374   3.120
  107MYC     H420820   1.691   4.464   3.152
  107MYC     H520821   1.852   4.397   3.131
  107MYC     C220822   1.699   4.260   3.212
  107MYC     H220823   1.591   4.275   3.221
  107MYC     O320824   1.736   4.135   3.155
  107MYC     H320825   1.824   4.153   3.119
  107MYC     C120826   1.761   4.277   3.352
  107MYC     H120827   1.726   4.377   3.378
  107MYC    C8120828   1.913   4.276   3.360
  107MYC    O8220829   1.990   4.237   3.274
  107MYC    O8320830   1.953   4.351   3.464
  107MYC   6H1520831   2.047   4.326   3.472
  107MYC    C2020832   1.700   4.177   3.452
  107MYC    H3420833   1.608   4.135   3.409
  107MYC    H3520834   1.773   4.096   3.465
  107MYC    C2120835   1.661   4.230   3.590
  107MYC    H3620836   1.740   4.293   3.632
  107MYC    H3720837   1.579   4.302   3.576
  107MYC    C2220838   1.611   4.118   3.684
  107MYC    H3820839   1.515   4.086   3.642
  107MYC    H3920840   1.672   4.027   3.685
  107MYC    C2320841   1.607   4.154   3.833
  107MYC    H4020842   1.709   4.188   3.856
  107MYC    H4120843   1.538   4.239   3.840
  107MYC    C2420844   1.558   4.045   3.931
  107MYC    H4220845   1.455   4.018   3.905
  107MYC    H4320846   1.627   3.960   3.933
  107MYC    C2520847   1.550   4.103   4.073
  107MYC    H4420848   1.617   4.189   4.079
  107MYC    H4520849   1.453   4.151   4.090
  107MYC    C2620850   1.582   4.005   4.187
  107MYC    H4620851   1.521   3.915   4.179
  107MYC    H4720852   1.686   3.971   4.176
  107MYC    C2720853   1.556   4.065   4.327
  107MYC    H4820854   1.567   4.174   4.323
  107MYC    H4920855   1.448   4.045   4.337
  107MYC    C2820856   1.639   4.000   4.439
  107MYC    H5020857   1.583   3.910   4.468
  107MYC    H5120858   1.735   3.983   4.389
  107MYC    C2920859   1.650   4.098   4.557
  107MYC    H5220860   1.697   4.194   4.531
  107MYC    H5320861   1.547   4.124   4.584
  107MYC    C3020862   1.720   4.039   4.681
  107MYC    H5420863   1.689   3.936   4.702
  107MYC    H5520864   1.827   4.045   4.658
  107MYC    C3120865   1.699   4.122   4.808
  107MYC    H5620866   1.712   4.229   4.787
  107MYC    H5720867   1.591   4.125   4.829
  107MYC    C3220868   1.788   4.085   4.927
  107MYC    H5820869   1.773   3.981   4.959
  107MYC    H5920870   1.890   4.094   4.889
  107MYC    C3320871   1.773   4.188   5.041
  107MYC    H6020872   1.819   4.280   5.003
  107MYC    H6120873   1.666   4.210   5.049
  107MYC    C3420874   1.829   4.146   5.178
  107MYC    H6220875   1.783   4.050   5.207
  107MYC    H6320876   1.935   4.126   5.161
  107MYC    C3520877   1.816   4.244   5.295
  107MYC    H6420878   1.885   4.325   5.270
  107MYC    H6520879   1.719   4.295   5.296
  107MYC    C3620880   1.846   4.196   5.438
  107MYC    H6620881   1.794   4.100   5.446
  107MYC    H6720882   1.955   4.182   5.450
  107MYC    C3720883   1.804   4.307   5.536
  107MYC    H6820884   1.860   4.399   5.514
  107MYC    H6920885   1.698   4.330   5.521
  107MYC    C3820886   1.820   4.250   5.678
  107MYC    H7020887   1.751   4.166   5.692
  107MYC    H7120888   1.922   4.214   5.697
  107MYC    C3920889   1.792   4.358   5.784
  107MYC    H7220890   1.871   4.435   5.775
  107MYC    H7320891   1.693   4.403   5.772
  107MYC    C4020892   1.808   4.293   5.922
  107MYC    H7420893   1.740   4.207   5.918
  107MYC    H7520894   1.912   4.260   5.931
  107MYC    C4120895   1.774   4.393   6.034
  107MYC    H7620896   1.860   4.459   6.046
  107MYC    H7720897   1.681   4.446   6.007
  107MYC    C4220898   1.752   4.323   6.169
  107MYC    H7820899   1.664   4.259   6.158
  107MYC    H7920900   1.838   4.260   6.195
  107MYC    C4320901   1.730   4.419   6.287
  107MYC    H8020902   1.644   4.482   6.263
  107MYC    H8120903   1.812   4.490   6.305
  107MYC    H8220904   1.707   4.365   6.380
  108MYC   5H1520905   1.537   5.375   6.257
  108MYC    C8020906   1.548   5.342   6.153
  108MYC   3H1520907   1.651   5.371   6.132
  108MYC   4H1520908   1.539   5.233   6.160
  108MYC    C7920909   1.445   5.402   6.056
  108MYC   1H1520910   1.434   5.509   6.079
  108MYC   2H1520911   1.345   5.357   6.066
  108MYC    C7820912   1.495   5.378   5.913
  108MYC   9H1420913   1.496   5.269   5.896
  108MYC   0H1520914   1.596   5.420   5.898
  108MYC    C7720915   1.416   5.439   5.797
  108MYC   7H1420916   1.424   5.549   5.793
  108MYC   8H1420917   1.310   5.417   5.813
  108MYC    C7620918   1.469   5.395   5.659
  108MYC   5H1420919   1.455   5.287   5.648
  108MYC   6H1420920   1.575   5.404   5.634
  108MYC    C7520921   1.381   5.459   5.550
  108MYC   3H1420922   1.371   5.568   5.548
  108MYC   4H1420923   1.277   5.430   5.570
  108MYC    C7420924   1.424   5.418   5.409
  108MYC   1H1420925   1.444   5.310   5.404
  108MYC   2H1420926   1.520   5.464   5.383
  108MYC    C7320927   1.319   5.453   5.302
  108MYC   9H1320928   1.295   5.557   5.325
  108MYC   0H1420929   1.231   5.388   5.313
  108MYC    C7220930   1.377   5.443   5.159
  108MYC   7H1320931   1.416   5.341   5.151
  108MYC   8H1320932   1.467   5.507   5.156
  108MYC    C7120933   1.282   5.461   5.040
  108MYC   5H1320934   1.245   5.564   5.042
  108MYC   6H1320935   1.192   5.401   5.057
  108MYC    C7020936   1.351   5.431   4.905
  108MYC   3H1320937   1.409   5.339   4.894
  108MYC   4H1320938   1.434   5.500   4.886
  108MYC    C6920939   1.259   5.446   4.783
  108MYC   1H1320940   1.235   5.553   4.776
  108MYC   2H1320941   1.170   5.386   4.805
  108MYC    C6820942   1.317   5.398   4.649
  108MYC   9H1220943   1.345   5.292   4.654
  108MYC   0H1320944   1.407   5.460   4.649
  108MYC    C6720945   1.236   5.426   4.521
  108MYC   7H1220946   1.233   5.534   4.501
  108MYC   8H1220947   1.134   5.395   4.544
  108MYC    C6620948   1.294   5.351   4.400
  108MYC   5H1220949   1.270   5.248   4.427
  108MYC   6H1220950   1.403   5.364   4.399
  108MYC    C6520951   1.229   5.385   4.265
  108MYC   3H1220952   1.234   5.494   4.254
  108MYC   4H1220953   1.123   5.356   4.269
  108MYC    C6420954   1.282   5.299   4.149
  108MYC   1H1220955   1.249   5.195   4.161
  108MYC   2H1220956   1.391   5.306   4.141
  108MYC    C6320957   1.225   5.338   4.012
  108MYC   9H1120958   1.241   5.442   3.983
  108MYC   0H1220959   1.116   5.331   4.021
  108MYC    C6220960   1.272   5.254   3.891
  108MYC   7H1120961   1.239   5.150   3.889
  108MYC   8H1120962   1.382   5.257   3.884
  108MYC    C6120963   1.224   5.310   3.756
  108MYC   5H1120964   1.278   5.399   3.720
  108MYC   6H1120965   1.117   5.330   3.769
  108MYC    C6020966   1.242   5.203   3.650
  108MYC   4H1120967   1.185   5.112   3.669
  108MYC    C5820968   1.257   5.232   3.503
  108MYC   1H1120969   1.262   5.336   3.472
  108MYC    C5920970   1.376   5.184   3.583
  108MYC   2H1120971   1.402   5.079   3.572
  108MYC   3H1120972   1.453   5.257   3.602
  108MYC    C5720973   1.191   5.134   3.407
  108MYC   9H1020974   1.083   5.151   3.399
  108MYC   0H1120975   1.205   5.031   3.442
  108MYC    C5620976   1.251   5.137   3.266
  108MYC   7H1020977   1.349   5.088   3.264
  108MYC   8H1020978   1.265   5.241   3.232
  108MYC    C5520979   1.167   5.058   3.164
  108MYC   5H1020980   1.068   5.105   3.172
  108MYC   6H1020981   1.157   4.953   3.196
  108MYC    C5420982   1.225   5.054   3.022
  108MYC   3H1020983   1.324   5.008   3.029
  108MYC   4H1020984   1.247   5.156   2.990
  108MYC    C5320985   1.144   4.968   2.923
  108MYC   1H1020986   1.050   5.023   2.921
  108MYC   2H1020987   1.130   4.867   2.963
  108MYC    C5220988   1.204   4.962   2.782
  108MYC    H9920989   1.283   4.886   2.773
  108MYC   0H1020990   1.254   5.057   2.758
  108MYC    C5120991   1.105   4.943   2.665
  108MYC    H9720992   1.020   5.011   2.662
  108MYC    H9820993   1.063   4.843   2.685
  108MYC    C5020994   1.176   4.933   2.529
  108MYC    H9520995   1.198   4.825   2.527
  108MYC    H9620996   1.274   4.983   2.526
  108MYC    C4920997   1.090   4.981   2.411
  108MYC    H9320998   1.067   5.087   2.418
  108MYC    H9420999   0.996   4.925   2.401
  108MYC    C4821000   1.165   4.955   2.279
  108MYC    H9121001   1.173   4.849   2.255
  108MYC    H9221002   1.266   4.997   2.292
  108MYC    C4721003   1.109   5.041   2.164
  108MYC    H8921004   1.074   5.139   2.199
  108MYC    H9021005   1.026   4.987   2.116
  108MYC    C4621006   1.214   5.072   2.056
  108MYC    H8721007   1.254   4.979   2.015
  108MYC    H8821008   1.295   5.133   2.098
  108MYC    C4521009   1.166   5.157   1.937
  108MYC    H8521010   1.107   5.237   1.985
  108MYC    H8621011   1.092   5.094   1.887
  108MYC    C4421012   1.275   5.211   1.844
  108MYC    H8321013   1.234   5.239   1.746
  108MYC    H8421014   1.339   5.127   1.817
  108MYC    C1821015   1.351   5.330   1.902
  108MYC    H3121016   1.289   5.376   1.979
  108MYC    C1721017   1.502   5.330   1.902
  108MYC    H3021018   1.554   5.248   1.854
  108MYC    C1921019   1.426   5.423   1.810
  108MYC    H3221020   1.418   5.416   1.702
  108MYC    H3321021   1.426   5.529   1.834
  108MYC    C1621022   1.573   5.392   2.022
  108MYC    H2821023   1.528   5.360   2.117
  108MYC    H2921024   1.561   5.501   2.022
  108MYC    C1521025   1.721   5.353   2.031
  108MYC    H2621026   1.772   5.441   2.073
  108MYC    H2721027   1.765   5.332   1.933
  108MYC    C1421028   1.745   5.235   2.127
  108MYC    H2421029   1.695   5.145   2.089
  108MYC    H2521030   1.716   5.258   2.230
  108MYC    C1321031   1.895   5.200   2.138
  108MYC    H2221032   1.942   5.283   2.190
  108MYC    H2321033   1.945   5.192   2.040
  108MYC    C1221034   1.924   5.071   2.217
  108MYC    H2021035   2.027   5.037   2.200
  108MYC    H2121036   1.853   4.994   2.185
  108MYC    C1121037   1.899   5.089   2.367
  108MYC    H1821038   1.800   5.133   2.382
  108MYC    H1921039   1.971   5.153   2.420
  108MYC    C1021040   1.900   4.958   2.447
  108MYC    H1621041   2.005   4.927   2.457
  108MYC    H1721042   1.839   4.880   2.399
  108MYC     C921043   1.827   4.968   2.582
  108MYC    H1421044   1.718   4.976   2.575
  108MYC    H1521045   1.867   5.057   2.633
  108MYC     C821046   1.848   4.847   2.675
  108MYC    H1221047   1.957   4.836   2.686
  108MYC    H1321048   1.801   4.755   2.640
  108MYC     C721049   1.790   4.890   2.811
  108MYC    H1021050   1.685   4.921   2.810
  108MYC    H1121051   1.851   4.974   2.846
  108MYC     C621052   1.829   4.782   2.915
  108MYC     H821053   1.938   4.775   2.924
  108MYC     H921054   1.810   4.684   2.870
  108MYC     C521055   1.747   4.795   3.044
  108MYC     H621056   1.783   4.715   3.109
  108MYC     H721057   1.639   4.780   3.030
  108MYC     C421058   1.773   4.927   3.118
  108MYC     H421059   1.699   4.996   3.076
  108MYC     H521060   1.873   4.969   3.099
  108MYC     C221061   1.758   4.922   3.271
  108MYC     H221062   1.744   5.025   3.303
  108MYC     O321063   1.636   4.852   3.291
  108MYC     H321064   1.618   4.831   3.384
  108MYC     C121065   1.879   4.874   3.354
  108MYC     H121066   1.964   4.939   3.333
  108MYC    C8121067   1.944   4.742   3.313
  108MYC    O8221068   1.954   4.648   3.390
  108MYC    O8321069   2.017   4.746   3.199
  108MYC   6H1521070   2.060   4.659   3.198
  108MYC    C2021071   1.844   4.886   3.503
  108MYC    H3421072   1.767   4.813   3.527
  108MYC    H3521073   1.926   4.846   3.565
  108MYC    C2121074   1.798   5.022   3.557
  108MYC    H3621075   1.834   5.109   3.501
  108MYC    H3721076   1.690   5.022   3.535
  108MYC    C2221077   1.822   5.051   3.706
  108MYC    H3821078   1.796   4.975   3.780
  108MYC    H3921079   1.931   5.062   3.715
  108MYC    C2321080   1.768   5.186   3.758
  108MYC    H4021081   1.806   5.245   3.673
  108MYC    H4121082   1.659   5.179   3.769
  108MYC    C2421083   1.839   5.219   3.890
  108MYC    H4221084   1.926   5.153   3.904
  108MYC    H4321085   1.885   5.318   3.884
  108MYC    C2521086   1.749   5.213   4.015
  108MYC    H4421087   1.653   5.266   4.013
  108MYC    H4521088   1.711   5.111   4.030
  108MYC    C2621089   1.825   5.247   4.144
  108MYC    H4621090   1.921   5.195   4.154
  108MYC    H4721091   1.853   5.352   4.137
  108MYC    C2721092   1.747   5.234   4.277
  108MYC    H4821093   1.657   5.296   4.267
  108MYC    H4921094   1.718   5.133   4.309
  108MYC    C2821095   1.840   5.281   4.390
  108MYC    H5021096   1.942   5.246   4.372
  108MYC    H5121097   1.850   5.390   4.397
  108MYC    C2921098   1.798   5.216   4.522
  108MYC    H5221099   1.694   5.246   4.539
  108MYC    H5321100   1.797   5.107   4.511
  108MYC    C3021101   1.878   5.255   4.648
  108MYC    H5421102   1.978   5.213   4.631
  108MYC    H5521103   1.881   5.364   4.645
  108MYC    C3121104   1.822   5.192   4.777
  108MYC    H5621105   1.730   5.247   4.801
  108MYC    H5721106   1.809   5.084   4.767
  108MYC    C3221107   1.914   5.229   4.894
  108MYC    H5821108   2.006   5.169   4.888
  108MYC    H5921109   1.940   5.336   4.889
  108MYC    C3321110   1.841   5.210   5.028
  108MYC    H6021111   1.741   5.255   5.027
  108MYC    H6121112   1.819   5.103   5.040
  108MYC    C3421113   1.926   5.250   5.150
  108MYC    H6221114   2.019   5.192   5.149
  108MYC    H6321115   1.963   5.352   5.134
  108MYC    C3521116   1.858   5.245   5.288
  108MYC    H6421117   1.783   5.323   5.303
  108MYC    H6521118   1.797   5.158   5.314
  108MYC    C3621119   1.958   5.258   5.405
  108MYC    H6621120   2.029   5.174   5.408
  108MYC    H6721121   2.017   5.348   5.384
  108MYC    C3721122   1.885   5.284   5.537
  108MYC    H6821123   1.850   5.388   5.535
  108MYC    H6921124   1.796   5.219   5.538
  108MYC    C3821125   1.975   5.256   5.659
  108MYC    H7021126   2.008   5.152   5.662
  108MYC    H7121127   2.061   5.322   5.643
  108MYC    C3921128   1.913   5.291   5.795
  108MYC    H7221129   1.912   5.400   5.811
  108MYC    H7321130   1.810   5.253   5.801
  108MYC    C4021131   1.995   5.228   5.909
  108MYC    H7421132   2.015   5.122   5.887
  108MYC    H7521133   2.090   5.280   5.925
  108MYC    C4121134   1.916   5.238   6.040
  108MYC    H7621135   1.888   5.341   6.067
  108MYC    H7721136   1.822   5.182   6.032
  108MYC    C4221137   1.999   5.193   6.162
  108MYC    H7821138   2.014   5.084   6.161
  108MYC    H7921139   2.098   5.240   6.154
  108MYC    C4321140   1.929   5.238   6.291
  108MYC    H8021141   1.990   5.221   6.380
  108MYC    H8121142   1.843   5.175   6.317
  108MYC    H8221143   1.889   5.340   6.283
  109MYC   5H1521144   1.629   6.215   6.206
  109MYC    C8021145   1.622   6.135   6.131
  109MYC   3H1521146   1.712   6.074   6.145
  109MYC   4H1521147   1.538   6.068   6.149
  109MYC    C7921148   1.607   6.193   5.990
  109MYC   1H1521149   1.699   6.245   5.962
  109MYC   2H1521150   1.532   6.273   5.993
  109MYC    C7821151   1.583   6.090   5.878
  109MYC   9H1421152   1.517   6.009   5.912
  109MYC   0H1521153   1.680   6.046   5.853
  109MYC    C7721154   1.529   6.149   5.747
  109MYC   7H1421155   1.582   6.243   5.724
  109MYC   8H1421156   1.427   6.186   5.764
  109MYC    C7621157   1.537   6.056   5.625
  109MYC   5H1421158   1.507   5.953   5.646
  109MYC   6H1421159   1.642   6.044   5.597
  109MYC    C7521160   1.454   6.108   5.507
  109MYC   3H1421161   1.465   6.216   5.493
  109MYC   4H1421162   1.347   6.096   5.531
  109MYC    C7421163   1.493   6.031   5.380
  109MYC   1H1421164   1.486   5.924   5.405
  109MYC   2H1421165   1.598   6.045   5.351
  109MYC    C7321166   1.402   6.070   5.263
  109MYC   9H1321167   1.409   6.178   5.245
  109MYC   0H1421168   1.300   6.042   5.291
  109MYC    C7221169   1.435   5.996   5.133
  109MYC   7H1321170   1.398   5.893   5.140
  109MYC   8H1321171   1.544   5.994   5.127
  109MYC    C7121172   1.387   6.075   5.010
  109MYC   5H1321173   1.433   6.174   5.003
  109MYC   6H1321174   1.282   6.088   5.039
  109MYC    C7021175   1.390   6.001   4.875
  109MYC   3H1321176   1.334   5.908   4.890
  109MYC   4H1321177   1.494   5.971   4.857
  109MYC    C6921178   1.327   6.082   4.760
  109MYC   1H1321179   1.377   6.179   4.760
  109MYC   2H1321180   1.222   6.108   4.780
  109MYC    C6821181   1.335   6.018   4.621
  109MYC   9H1221182   1.267   5.932   4.613
  109MYC   0H1321183   1.438   5.981   4.613
  109MYC    C6721184   1.303   6.117   4.508
  109MYC   7H1221185   1.377   6.196   4.527
  109MYC   8H1221186   1.204   6.161   4.524
  109MYC    C6621187   1.318   6.056   4.367
  109MYC   5H1221188   1.216   6.030   4.335
  109MYC   6H1221189   1.376   5.963   4.359
  109MYC    C6521190   1.379   6.153   4.265
  109MYC   3H1221191   1.485   6.173   4.286
  109MYC   4H1221192   1.324   6.248   4.273
  109MYC    C6421193   1.378   6.102   4.120
  109MYC   1H1221194   1.283   6.052   4.099
  109MYC   2H1221195   1.443   6.013   4.113
  109MYC    C6321196   1.406   6.209   4.014
  109MYC   9H1121197   1.504   6.257   4.023
  109MYC   0H1221198   1.321   6.277   4.028
  109MYC    C6221199   1.403   6.146   3.873
  109MYC   7H1121200   1.306   6.094   3.874
  109MYC   8H1121201   1.485   6.074   3.868
  109MYC    C6121202   1.411   6.253   3.763
  109MYC   5H1121203   1.509   6.301   3.771
  109MYC   6H1121204   1.340   6.335   3.778
  109MYC    C6021205   1.387   6.188   3.627
  109MYC   4H1121206   1.308   6.113   3.629
  109MYC    C5821207   1.427   6.260   3.501
  109MYC   1H1121208   1.445   6.366   3.519
  109MYC    C5921209   1.515   6.151   3.556
  109MYC   2H1121210   1.531   6.064   3.492
  109MYC   3H1121211   1.606   6.192   3.599
  109MYC    C5721212   1.351   6.255   3.369
  109MYC   9H1021213   1.287   6.343   3.359
  109MYC   0H1121214   1.285   6.167   3.371
  109MYC    C5621215   1.447   6.250   3.249
  109MYC   7H1021216   1.506   6.157   3.254
  109MYC   8H1021217   1.521   6.330   3.249
  109MYC    C5521218   1.375   6.262   3.113
  109MYC   5H1021219   1.317   6.355   3.113
  109MYC   6H1021220   1.306   6.178   3.103
  109MYC    C5421221   1.466   6.257   2.989
  109MYC   3H1021222   1.548   6.184   2.996
  109MYC   4H1021223   1.526   6.349   2.983
  109MYC    C5321224   1.386   6.250   2.858
  109MYC   1H1021225   1.321   6.337   2.845
  109MYC   2H1021226   1.327   6.159   2.877
  109MYC    C5221227   1.478   6.233   2.736
  109MYC    H9921228   1.543   6.146   2.751
  109MYC   0H1021229   1.548   6.318   2.735
  109MYC    C5121230   1.404   6.231   2.601
  109MYC    H9721231   1.340   6.319   2.586
  109MYC    H9821232   1.336   6.146   2.583
  109MYC    C5021233   1.504   6.228   2.484
  109MYC    H9521234   1.560   6.136   2.464
  109MYC    H9621235   1.580   6.304   2.506
  109MYC    C4921236   1.436   6.258   2.349
  109MYC    H9321237   1.386   6.355   2.350
  109MYC    H9421238   1.353   6.187   2.340
  109MYC    C4821239   1.528   6.245   2.226
  109MYC    H9121240   1.618   6.189   2.252
  109MYC    H9221241   1.575   6.343   2.208
  109MYC    C4721242   1.469   6.192   2.094
  109MYC    H8921243   1.450   6.277   2.028
  109MYC    H9021244   1.373   6.142   2.109
  109MYC    C4621245   1.559   6.091   2.019
  109MYC    H8721246   1.553   5.996   2.073
  109MYC    H8821247   1.664   6.119   2.028
  109MYC    C4521248   1.516   6.075   1.872
  109MYC    H8521249   1.525   6.174   1.827
  109MYC    H8621250   1.410   6.050   1.859
  109MYC    C4421251   1.608   5.977   1.797
  109MYC    H8321252   1.577   5.985   1.692
  109MYC    H8421253   1.576   5.880   1.838
  109MYC    C1821254   1.759   5.995   1.802
  109MYC    H3121255   1.803   6.082   1.850
  109MYC    C1721256   1.834   5.864   1.795
  109MYC    H3021257   1.784   5.772   1.766
  109MYC    C1921258   1.835   5.958   1.677
  109MYC    H3221259   1.770   5.928   1.595
  109MYC    H3321260   1.928   6.006   1.649
  109MYC    C1621261   1.961   5.820   1.866
  109MYC    H2821262   2.008   5.902   1.921
  109MYC    H2921263   2.040   5.799   1.792
  109MYC    C1521264   1.947   5.702   1.964
  109MYC    H2621265   2.040   5.696   2.022
  109MYC    H2721266   1.952   5.601   1.920
  109MYC    C1421267   1.845   5.715   2.078
  109MYC    H2421268   1.753   5.671   2.039
  109MYC    H2521269   1.817   5.819   2.101
  109MYC    C1321270   1.872   5.647   2.214
  109MYC    H2221271   1.934   5.717   2.270
  109MYC    H2321272   1.939   5.561   2.198
  109MYC    C1221273   1.744   5.623   2.296
  109MYC    H2021274   1.652   5.616   2.237
  109MYC    H2121275   1.726   5.708   2.363
  109MYC    C1121276   1.759   5.506   2.394
  109MYC    H1821277   1.815   5.541   2.482
  109MYC    H1921278   1.819   5.420   2.360
  109MYC    C1021279   1.624   5.450   2.442
  109MYC    H1621280   1.645   5.382   2.525
  109MYC    H1721281   1.577   5.393   2.361
  109MYC     C921282   1.524   5.550   2.502
  109MYC    H1421283   1.442   5.487   2.539
  109MYC    H1521284   1.488   5.617   2.423
  109MYC     C821285   1.581   5.630   2.621
  109MYC    H1221286   1.522   5.717   2.653
  109MYC    H1321287   1.677   5.675   2.590
  109MYC     C721288   1.611   5.544   2.744
  109MYC    H1021289   1.711   5.500   2.731
  109MYC    H1121290   1.542   5.458   2.749
  109MYC     C621291   1.609   5.634   2.868
  109MYC     H821292   1.521   5.700   2.867
  109MYC     H921293   1.688   5.711   2.861
  109MYC     C521294   1.624   5.557   3.000
  109MYC     H621295   1.697   5.478   2.983
  109MYC     H721296   1.527   5.510   3.023
  109MYC     C421297   1.653   5.643   3.125
  109MYC     H421298   1.582   5.725   3.112
  109MYC     H521299   1.756   5.680   3.117
  109MYC     C221300   1.624   5.578   3.261
  109MYC     H221301   1.630   5.666   3.328
  109MYC     O321302   1.492   5.527   3.267
  109MYC     H321303   1.486   5.435   3.237
  109MYC     C121304   1.728   5.477   3.312
  109MYC     H121305   1.826   5.527   3.321
  109MYC    C8121306   1.748   5.349   3.232
  109MYC    O8221307   1.672   5.309   3.146
  109MYC    O8321308   1.868   5.290   3.253
  109MYC   6H1521309   1.887   5.235   3.176
  109MYC    C2021310   1.694   5.442   3.458
  109MYC    H3421311   1.623   5.360   3.450
  109MYC    H3521312   1.789   5.403   3.498
  109MYC    C2121313   1.640   5.551   3.552
  109MYC    H3621314   1.671   5.654   3.531
  109MYC    H3721315   1.532   5.564   3.541
  109MYC    C2221316   1.658   5.509   3.699
  109MYC    H3821317   1.608   5.413   3.713
  109MYC    H3921318   1.764   5.499   3.726
  109MYC    C2321319   1.590   5.610   3.794
  109MYC    H4021320   1.640   5.706   3.777
  109MYC    H4121321   1.484   5.615   3.768
  109MYC    C2421322   1.608   5.563   3.939
  109MYC    H4221323   1.524   5.497   3.966
  109MYC    H4321324   1.706   5.514   3.947
  109MYC    C2521325   1.620   5.673   4.045
  109MYC    H4421326   1.699   5.741   4.010
  109MYC    H4521327   1.527   5.731   4.054
  109MYC    C2621328   1.649   5.612   4.183
  109MYC    H4621329   1.564   5.548   4.209
  109MYC    H4721330   1.736   5.545   4.187
  109MYC    C2721331   1.659   5.715   4.296
  109MYC    H4821332   1.752   5.768   4.274
  109MYC    H4921333   1.574   5.785   4.294
  109MYC    C2821334   1.652   5.651   4.436
  109MYC    H5021335   1.547   5.658   4.466
  109MYC    H5121336   1.678   5.545   4.431
  109MYC    C2921337   1.737   5.730   4.536
  109MYC    H5221338   1.843   5.717   4.511
  109MYC    H5321339   1.709   5.836   4.537
  109MYC    C3021340   1.709   5.677   4.677
  109MYC    H5421341   1.604   5.690   4.706
  109MYC    H5521342   1.711   5.567   4.673
  109MYC    C3121343   1.802   5.740   4.782
  109MYC    H5621344   1.902   5.699   4.761
  109MYC    H5721345   1.815   5.849   4.773
  109MYC    C3221346   1.774   5.687   4.924
  109MYC    H5821347   1.665   5.680   4.935
  109MYC    H5921348   1.810   5.583   4.926
  109MYC    C3321349   1.832   5.768   5.041
  109MYC    H6021350   1.941   5.756   5.040
  109MYC    H6121351   1.811   5.875   5.035
  109MYC    C3421352   1.786   5.704   5.173
  109MYC    H6221353   1.677   5.701   5.179
  109MYC    H6321354   1.820   5.600   5.180
  109MYC    C3521355   1.839   5.770   5.301
  109MYC    H6421356   1.948   5.769   5.311
  109MYC    H6521357   1.818   5.878   5.293
  109MYC    C3621358   1.772   5.707   5.424
  109MYC    H6621359   1.663   5.715   5.412
  109MYC    H6721360   1.791   5.600   5.435
  109MYC    C3721361   1.816   5.776   5.555
  109MYC    H6821362   1.925   5.768   5.566
  109MYC    H6921363   1.802   5.885   5.553
  109MYC    C3821364   1.749   5.711   5.677
  109MYC    H7021365   1.639   5.707   5.670
  109MYC    H7121366   1.783   5.607   5.672
  109MYC    C3921367   1.803   5.771   5.808
  109MYC    H7221368   1.903   5.732   5.832
  109MYC    H7321369   1.819   5.878   5.796
  109MYC    C4021370   1.721   5.743   5.935
  109MYC    H7421371   1.648   5.823   5.948
  109MYC    H7521372   1.668   5.647   5.929
  109MYC    C4121373   1.812   5.738   6.060
  109MYC    H7621374   1.885   5.657   6.060
  109MYC    H7721375   1.873   5.829   6.055
  109MYC    C4221376   1.731   5.736   6.191
  109MYC    H7821377   1.639   5.795   6.196
  109MYC    H7921378   1.700   5.632   6.209
  109MYC    C4321379   1.819   5.776   6.310
  109MYC    H8021380   1.762   5.788   6.403
  109MYC    H8121381   1.842   5.882   6.293
  109MYC    H8221382   1.903   5.710   6.331
  110MYC   5H1521383   2.666   0.451   6.161
  110MYC    C8021384   2.600   0.462   6.074
  110MYC   3H1521385   2.502   0.425   6.104
  110MYC   4H1521386   2.601   0.569   6.048
  110MYC    C7921387   2.663   0.386   5.956
  110MYC   1H1521388   2.673   0.283   5.990
  110MYC   2H1521389   2.763   0.430   5.944
  110MYC    C7821390   2.571   0.388   5.832
  110MYC   9H1421391   2.522   0.486   5.820
  110MYC   0H1521392   2.488   0.318   5.843
  110MYC    C7721393   2.642   0.357   5.699
  110MYC   7H1421394   2.652   0.248   5.703
  110MYC   8H1421395   2.740   0.407   5.697
  110MYC    C7621396   2.557   0.393   5.576
  110MYC   5H1421397   2.515   0.493   5.591
  110MYC   6H1421398   2.466   0.331   5.578
  110MYC    C7521399   2.627   0.388   5.440
  110MYC   3H1421400   2.679   0.292   5.431
  110MYC   4H1421401   2.707   0.464   5.437
  110MYC    C7421402   2.528   0.407   5.324
  110MYC   1H1421403   2.457   0.488   5.343
  110MYC   2H1421404   2.455   0.325   5.328
  110MYC    C7321405   2.596   0.408   5.186
  110MYC   9H1321406   2.637   0.307   5.169
  110MYC   0H1421407   2.676   0.482   5.189
  110MYC    C7221408   2.495   0.440   5.074
  110MYC   7H1321409   2.468   0.545   5.087
  110MYC   8H1321410   2.403   0.381   5.087
  110MYC    C7121411   2.550   0.399   4.936
  110MYC   5H1321412   2.541   0.289   4.932
  110MYC   6H1321413   2.658   0.420   4.926
  110MYC    C7021414   2.486   0.468   4.815
  110MYC   3H1321415   2.485   0.577   4.831
  110MYC   4H1321416   2.380   0.438   4.806
  110MYC    C6921417   2.561   0.432   4.686
  110MYC   1H1321418   2.576   0.324   4.678
  110MYC   2H1321419   2.658   0.482   4.689
  110MYC    C6821420   2.499   0.492   4.558
  110MYC   9H1221421   2.494   0.601   4.569
  110MYC   0H1321422   2.395   0.458   4.544
  110MYC    C6721423   2.583   0.468   4.432
  110MYC   7H1221424   2.578   0.360   4.409
  110MYC   8H1221425   2.687   0.489   4.458
  110MYC    C6621426   2.537   0.564   4.321
  110MYC   5H1221427   2.558   0.668   4.350
  110MYC   6H1221428   2.429   0.549   4.306
  110MYC    C6521429   2.614   0.538   4.191
  110MYC   3H1221430   2.635   0.432   4.170
  110MYC   4H1221431   2.715   0.580   4.205
  110MYC    C6421432   2.545   0.586   4.062
  110MYC   1H1221433   2.523   0.693   4.063
  110MYC   2H1221434   2.448   0.537   4.046
  110MYC    C6321435   2.636   0.560   3.941
  110MYC   9H1121436   2.633   0.453   3.918
  110MYC   0H1221437   2.737   0.590   3.971
  110MYC    C6221438   2.620   0.640   3.810
  110MYC   7H1121439   2.610   0.748   3.830
  110MYC   8H1121440   2.529   0.608   3.758
  110MYC    C6121441   2.740   0.605   3.721
  110MYC   5H1121442   2.773   0.500   3.726
  110MYC   6H1121443   2.825   0.658   3.765
  110MYC    C6021444   2.713   0.643   3.576
  110MYC   4H1121445   2.656   0.734   3.562
  110MYC    C5821446   2.797   0.595   3.460
  110MYC   1H1121447   2.889   0.544   3.489
  110MYC    C5921448   2.668   0.524   3.494
  110MYC   2H1121449   2.578   0.532   3.433
  110MYC   3H1121450   2.685   0.426   3.538
  110MYC    C5721451   2.800   0.673   3.330
  110MYC   9H1021452   2.873   0.755   3.332
  110MYC   0H1121453   2.702   0.721   3.314
  110MYC    C5621454   2.835   0.588   3.207
  110MYC   7H1021455   2.761   0.508   3.194
  110MYC   8H1021456   2.931   0.538   3.221
  110MYC    C5521457   2.830   0.658   3.070
  110MYC   5H1021458   2.935   0.677   3.044
  110MYC   6H1021459   2.773   0.752   3.073
  110MYC    C5421460   2.769   0.572   2.958
  110MYC   3H1021461   2.665   0.550   2.983
  110MYC   4H1021462   2.820   0.476   2.943
  110MYC    C5321463   2.764   0.641   2.821
  110MYC   1H1021464   2.864   0.652   2.777
  110MYC   2H1021465   2.718   0.741   2.822
  110MYC    C5221466   2.693   0.548   2.721
  110MYC    H9921467   2.585   0.555   2.740
  110MYC   0H1021468   2.735   0.448   2.735
  110MYC    C5121469   2.726   0.582   2.574
  110MYC    H9721470   2.835   0.577   2.560
  110MYC    H9821471   2.701   0.685   2.546
  110MYC    C5021472   2.666   0.486   2.470
  110MYC    H9521473   2.558   0.485   2.488
  110MYC    H9621474   2.707   0.386   2.488
  110MYC    C4921475   2.695   0.525   2.324
  110MYC    H9321476   2.804   0.532   2.313
  110MYC    H9421477   2.662   0.627   2.303
  110MYC    C4821478   2.640   0.430   2.216
  110MYC    H9121479   2.536   0.406   2.240
  110MYC    H9221480   2.699   0.338   2.221
  110MYC    C4721481   2.641   0.505   2.082
  110MYC    H8921482   2.741   0.542   2.054
  110MYC    H9021483   2.575   0.592   2.096
  110MYC    C4621484   2.588   0.420   1.966
  110MYC    H8721485   2.479   0.413   1.977
  110MYC    H8821486   2.627   0.318   1.958
  110MYC    C4521487   2.613   0.482   1.827
  110MYC    H8521488   2.720   0.470   1.807
  110MYC    H8621489   2.596   0.590   1.837
  110MYC    C4421490   2.525   0.422   1.717
  110MYC    H8321491   2.558   0.464   1.621
  110MYC    H8421492   2.424   0.463   1.734
  110MYC    C1821493   2.516   0.270   1.706
  110MYC    H3121494   2.582   0.216   1.773
  110MYC    C1721495   2.382   0.210   1.672
  110MYC    H3021496   2.304   0.280   1.645
  110MYC    C1921497   2.490   0.216   1.567
  110MYC    H3221498   2.472   0.286   1.486
  110MYC    H3321499   2.533   0.123   1.531
  110MYC    C1621500   2.334   0.072   1.717
  110MYC    H2821501   2.422   0.011   1.741
  110MYC    H2921502   2.282   0.037   1.627
  110MYC    C1521503   2.228   0.061   1.828
  110MYC    H2621504   2.209  -0.044   1.853
  110MYC    H2721505   2.135   0.108   1.795
  110MYC    C1421506   2.263   0.144   1.953
  110MYC    H2421507   2.269   0.250   1.927
  110MYC    H2521508   2.360   0.110   1.991
  110MYC    C1321509   2.158   0.117   2.063
  110MYC    H2221510   2.156   0.011   2.088
  110MYC    H2321511   2.058   0.137   2.023
  110MYC    C1221512   2.197   0.208   2.181
  110MYC    H2021513   2.173   0.311   2.153
  110MYC    H2121514   2.303   0.197   2.206
  110MYC    C1121515   2.129   0.168   2.313
  110MYC    H1821516   2.130   0.059   2.328
  110MYC    H1921517   2.024   0.199   2.310
  110MYC    C1021518   2.182   0.254   2.429
  110MYC    H1621519   2.115   0.231   2.513
  110MYC    H1721520   2.179   0.363   2.411
  110MYC     C921521   2.325   0.213   2.468
  110MYC    H1421522   2.390   0.281   2.411
  110MYC    H1521523   2.353   0.112   2.435
  110MYC     C821524   2.348   0.221   2.619
  110MYC    H1221525   2.263   0.169   2.666
  110MYC    H1321526   2.346   0.325   2.652
  110MYC     C721527   2.467   0.143   2.678
  110MYC    H1021528   2.553   0.211   2.683
  110MYC    H1121529   2.494   0.059   2.611
  110MYC     C621530   2.431   0.099   2.821
  110MYC     H821531   2.368   0.009   2.821
  110MYC     H921532   2.376   0.179   2.872
  110MYC     C521533   2.554   0.064   2.907
  110MYC     H621534   2.622   0.149   2.898
  110MYC     H721535   2.611  -0.017   2.862
  110MYC     C421536   2.522   0.024   3.052
  110MYC     H421537   2.614  -0.028   3.082
  110MYC     H521538   2.441  -0.049   3.058
  110MYC     C221539   2.495   0.137   3.153
  110MYC     H221540   2.571   0.127   3.232
  110MYC     O321541   2.520   0.267   3.103
  110MYC     H321542   2.453   0.330   3.135
  110MYC     C121543   2.351   0.134   3.208
  110MYC     H121544   2.312   0.032   3.207
  110MYC    C8121545   2.244   0.210   3.131
  110MYC    O8221546   2.199   0.317   3.169
  110MYC    O8321547   2.186   0.142   3.030
  110MYC   6H1521548   2.097   0.181   3.024
  110MYC    C2021549   2.346   0.164   3.358
  110MYC    H3421550   2.392   0.262   3.373
  110MYC    H3521551   2.242   0.176   3.388
  110MYC    C2121552   2.415   0.051   3.437
  110MYC    H3621553   2.376  -0.045   3.401
  110MYC    H3721554   2.524   0.044   3.424
  110MYC    C2221555   2.390   0.062   3.588
  110MYC    H3821556   2.447   0.151   3.620
  110MYC    H3921557   2.283   0.078   3.603
  110MYC    C2321558   2.427  -0.069   3.660
  110MYC    H4021559   2.397  -0.157   3.602
  110MYC    H4121560   2.536  -0.074   3.669
  110MYC    C2421561   2.371  -0.077   3.803
  110MYC    H4221562   2.265  -0.052   3.794
  110MYC    H4321563   2.386  -0.180   3.838
  110MYC    C2521564   2.429   0.019   3.909
  110MYC    H4421565   2.538   0.008   3.914
  110MYC    H4521566   2.406   0.119   3.869
  110MYC    C2621567   2.356  -0.001   4.042
  110MYC    H4621568   2.250   0.013   4.015
  110MYC    H4721569   2.378  -0.104   4.071
  110MYC    C2721570   2.390   0.099   4.154
  110MYC    H4821571   2.498   0.110   4.167
  110MYC    H4921572   2.346   0.196   4.125
  110MYC    C2821573   2.329   0.040   4.282
  110MYC    H5021574   2.221   0.060   4.284
  110MYC    H5121575   2.334  -0.070   4.277
  110MYC    C2921576   2.391   0.096   4.411
  110MYC    H5221577   2.499   0.077   4.416
  110MYC    H5321578   2.382   0.205   4.423
  110MYC    C3021579   2.321   0.021   4.525
  110MYC    H5421580   2.213   0.038   4.514
  110MYC    H5521581   2.345  -0.086   4.526
  110MYC    C3121582   2.377   0.063   4.662
  110MYC    H5621583   2.486   0.051   4.669
  110MYC    H5721584   2.351   0.168   4.679
  110MYC    C3221585   2.311  -0.015   4.777
  110MYC    H5821586   2.202  -0.009   4.769
  110MYC    H5921587   2.336  -0.121   4.766
  110MYC    C3321588   2.363   0.027   4.915
  110MYC    H6021589   2.470   0.004   4.907
  110MYC    H6121590   2.351   0.136   4.919
  110MYC    C3421591   2.300  -0.050   5.032
  110MYC    H6221592   2.194  -0.024   5.024
  110MYC    H6321593   2.302  -0.160   5.034
  110MYC    C3521594   2.350   0.015   5.162
  110MYC    H6421595   2.459   0.014   5.151
  110MYC    H6521596   2.326   0.122   5.166
  110MYC    C3621597   2.323  -0.065   5.290
  110MYC    H6621598   2.215  -0.045   5.302
  110MYC    H6721599   2.346  -0.171   5.279
  110MYC    C3721600   2.396  -0.013   5.416
  110MYC    H6821601   2.502  -0.039   5.407
  110MYC    H6921602   2.391   0.095   5.430
  110MYC    C3821603   2.344  -0.073   5.548
  110MYC    H7021604   2.235  -0.066   5.538
  110MYC    H7121605   2.380  -0.176   5.552
  110MYC    C3921606   2.390   0.002   5.674
  110MYC    H7221607   2.500  -0.005   5.668
  110MYC    H7321608   2.365   0.108   5.668
  110MYC    C4021609   2.341  -0.056   5.808
  110MYC    H7421610   2.234  -0.035   5.814
  110MYC    H7521611   2.357  -0.164   5.811
  110MYC    C4121612   2.405   0.013   5.931
  110MYC    H7621613   2.510   0.037   5.913
  110MYC    H7721614   2.355   0.110   5.943
  110MYC    C4221615   2.382  -0.072   6.057
  110MYC    H7821616   2.277  -0.101   6.073
  110MYC    H7921617   2.441  -0.164   6.053
  110MYC    C4321618   2.421   0.001   6.187
  110MYC    H8021619   2.420  -0.063   6.276
  110MYC    H8121620   2.354   0.086   6.202
  110MYC    H8221621   2.521   0.045   6.182
  111MYC   5H1521622   2.490   1.407   6.172
  111MYC    C8021623   2.426   1.366   6.093
  111MYC   3H1521624   2.371   1.288   6.147
  111MYC   4H1521625   2.362   1.441   6.045
  111MYC    C7921626   2.510   1.293   5.986
  111MYC   1H1521627   2.558   1.207   6.034
  111MYC   2H1521628   2.592   1.354   5.947
  111MYC    C7821629   2.431   1.236   5.867
  111MYC   9H1421630   2.369   1.312   5.819
  111MYC   0H1521631   2.352   1.170   5.905
  111MYC    C7721632   2.524   1.166   5.767
  111MYC   7H1421633   2.549   1.062   5.792
  111MYC   8H1421634   2.613   1.227   5.751
  111MYC    C7621635   2.454   1.161   5.630
  111MYC   5H1421636   2.420   1.263   5.607
  111MYC   6H1421637   2.360   1.105   5.636
  111MYC    C7521638   2.535   1.109   5.510
  111MYC   3H1421639   2.551   1.000   5.519
  111MYC   4H1421640   2.630   1.165   5.508
  111MYC    C7421641   2.465   1.141   5.378
  111MYC   1H1421642   2.393   1.223   5.390
  111MYC   2H1421643   2.402   1.054   5.354
  111MYC    C7321644   2.558   1.154   5.256
  111MYC   9H1321645   2.615   1.062   5.244
  111MYC   0H1421646   2.622   1.243   5.253
  111MYC    C7221647   2.467   1.174   5.133
  111MYC   7H1321648   2.388   1.249   5.149
  111MYC   8H1321649   2.414   1.079   5.123
  111MYC    C7121650   2.544   1.213   5.005
  111MYC   5H1321651   2.627   1.144   4.987
  111MYC   6H1321652   2.581   1.316   5.018
  111MYC    C7021653   2.459   1.207   4.877
  111MYC   3H1321654   2.370   1.270   4.887
  111MYC   4H1321655   2.418   1.106   4.870
  111MYC    C6921656   2.538   1.228   4.747
  111MYC   1H1321657   2.627   1.164   4.750
  111MYC   2H1321658   2.554   1.336   4.739
  111MYC    C6821659   2.446   1.184   4.631
  111MYC   9H1221660   2.350   1.236   4.631
  111MYC   0H1321661   2.419   1.079   4.647
  111MYC    C6721662   2.503   1.204   4.489
  111MYC   7H1221663   2.570   1.120   4.466
  111MYC   8H1221664   2.554   1.301   4.487
  111MYC    C6621665   2.403   1.223   4.375
  111MYC   5H1221666   2.358   1.323   4.374
  111MYC   6H1221667   2.324   1.147   4.367
  111MYC    C6521668   2.488   1.227   4.246
  111MYC   3H1221669   2.559   1.144   4.244
  111MYC   4H1221670   2.554   1.314   4.247
  111MYC    C6421671   2.396   1.220   4.123
  111MYC   1H1221672   2.317   1.295   4.129
  111MYC   2H1221673   2.359   1.117   4.122
  111MYC    C6321674   2.474   1.240   3.991
  111MYC   9H1121675   2.555   1.166   3.990
  111MYC   0H1221676   2.527   1.335   4.001
  111MYC    C6221677   2.381   1.241   3.869
  111MYC   7H1121678   2.315   1.327   3.884
  111MYC   8H1121679   2.319   1.150   3.860
  111MYC    C6121680   2.464   1.264   3.742
  111MYC   5H1121681   2.561   1.213   3.744
  111MYC   6H1121682   2.496   1.369   3.733
  111MYC    C6021683   2.397   1.223   3.612
  111MYC   4H1121684   2.289   1.230   3.618
  111MYC    C5821685   2.477   1.267   3.492
  111MYC   1H1121686   2.580   1.301   3.507
  111MYC    C5921687   2.459   1.121   3.521
  111MYC   2H1121688   2.398   1.061   3.453
  111MYC   3H1121689   2.542   1.066   3.564
  111MYC    C5721690   2.405   1.336   3.377
  111MYC   9H1021691   2.445   1.438   3.376
  111MYC   0H1121692   2.297   1.330   3.391
  111MYC    C5621693   2.430   1.269   3.241
  111MYC   7H1021694   2.356   1.190   3.223
  111MYC   8H1021695   2.528   1.220   3.239
  111MYC    C5521696   2.423   1.371   3.126
  111MYC   5H1021697   2.515   1.430   3.120
  111MYC   6H1021698   2.334   1.435   3.134
  111MYC    C5421699   2.408   1.299   2.991
  111MYC   3H1021700   2.308   1.255   2.982
  111MYC   4H1021701   2.482   1.219   2.995
  111MYC    C5321702   2.438   1.386   2.868
  111MYC   1H1021703   2.545   1.410   2.866
  111MYC   2H1021704   2.386   1.482   2.861
  111MYC    C5221705   2.409   1.297   2.746
  111MYC    H9921706   2.305   1.263   2.734
  111MYC   0H1021707   2.464   1.206   2.771
  111MYC    C5121708   2.457   1.355   2.611
  111MYC    H9721709   2.565   1.366   2.624
  111MYC    H9821710   2.413   1.454   2.598
  111MYC    C5021711   2.450   1.263   2.489
  111MYC    H9521712   2.352   1.213   2.487
  111MYC    H9621713   2.530   1.189   2.496
  111MYC    C4921714   2.483   1.345   2.363
  111MYC    H9321715   2.572   1.407   2.374
  111MYC    H9421716   2.404   1.419   2.343
  111MYC    C4821717   2.510   1.258   2.239
  111MYC    H9121718   2.423   1.201   2.204
  111MYC    H9221719   2.583   1.182   2.269
  111MYC    C4721720   2.553   1.343   2.118
  111MYC    H8921721   2.635   1.411   2.143
  111MYC    H9021722   2.476   1.412   2.082
  111MYC    C4621723   2.602   1.252   2.003
  111MYC    H8721724   2.514   1.199   1.964
  111MYC    H8821725   2.673   1.177   2.041
  111MYC    C4521726   2.668   1.331   1.889
  111MYC    H8521727   2.723   1.262   1.823
  111MYC    H8621728   2.745   1.403   1.920
  111MYC    C4421729   2.566   1.405   1.802
  111MYC    H8321730   2.623   1.468   1.732
  111MYC    H8421731   2.501   1.468   1.864
  111MYC    C1821732   2.468   1.314   1.729
  111MYC    H3121733   2.515   1.226   1.686
  111MYC    C1721734   2.323   1.299   1.770
  111MYC    H3021735   2.287   1.356   1.855
  111MYC    C1921736   2.360   1.379   1.647
  111MYC    H3221737   2.364   1.487   1.647
  111MYC    H3321738   2.333   1.332   1.553
  111MYC    C1621739   2.244   1.171   1.754
  111MYC    H2821740   2.300   1.102   1.690
  111MYC    H2921741   2.154   1.189   1.693
  111MYC    C1521742   2.230   1.101   1.891
  111MYC    H2621743   2.129   1.061   1.878
  111MYC    H2721744   2.218   1.177   1.969
  111MYC    C1421745   2.330   0.987   1.918
  111MYC    H2421746   2.420   1.029   1.965
  111MYC    H2521747   2.361   0.936   1.826
  111MYC    C1321748   2.269   0.884   2.014
  111MYC    H2221749   2.191   0.821   1.970
  111MYC    H2321750   2.237   0.923   2.112
  111MYC    C1221751   2.366   0.773   2.057
  111MYC    H2021752   2.445   0.813   2.122
  111MYC    H2121753   2.408   0.733   1.964
  111MYC    C1121754   2.300   0.653   2.127
  111MYC    H1821755   2.375   0.576   2.147
  111MYC    H1921756   2.224   0.600   2.068
  111MYC    C1021757   2.241   0.679   2.267
  111MYC    H1621758   2.221   0.583   2.316
  111MYC    H1721759   2.153   0.745   2.265
  111MYC     C921760   2.339   0.756   2.357
  111MYC    H1421761   2.357   0.858   2.321
  111MYC    H1521762   2.435   0.704   2.365
  111MYC     C821763   2.281   0.778   2.498
  111MYC    H1221764   2.271   0.683   2.550
  111MYC    H1321765   2.182   0.824   2.486
  111MYC     C721766   2.365   0.863   2.595
  111MYC    H1021767   2.346   0.970   2.579
  111MYC    H1121768   2.471   0.846   2.573
  111MYC     C621769   2.342   0.833   2.744
  111MYC     H821770   2.377   0.731   2.767
  111MYC     H921771   2.237   0.839   2.773
  111MYC     C521772   2.418   0.924   2.842
  111MYC     H621773   2.349   1.003   2.875
  111MYC     H721774   2.496   0.977   2.788
  111MYC     C421775   2.458   0.849   2.971
  111MYC     H421776   2.546   0.900   3.012
  111MYC     H521777   2.493   0.746   2.963
  111MYC     C221778   2.352   0.863   3.082
  111MYC     H221779   2.346   0.968   3.113
  111MYC     O321780   2.218   0.831   3.043
  111MYC     H321781   2.198   0.744   3.081
  111MYC     C121782   2.383   0.785   3.211
  111MYC     H121783   2.481   0.822   3.242
  111MYC    C8121784   2.400   0.637   3.181
  111MYC    O8221785   2.494   0.567   3.215
  111MYC    O8321786   2.293   0.580   3.121
  111MYC   6H1521787   2.316   0.486   3.121
  111MYC    C2021788   2.284   0.826   3.321
  111MYC    H3421789   2.274   0.933   3.343
  111MYC    H3521790   2.186   0.798   3.281
  111MYC    C2121791   2.300   0.747   3.453
  111MYC    H3621792   2.257   0.648   3.437
  111MYC    H3721793   2.404   0.741   3.489
  111MYC    C2221794   2.214   0.805   3.566
  111MYC    H3821795   2.229   0.913   3.583
  111MYC    H3921796   2.110   0.779   3.542
  111MYC    C2321797   2.255   0.737   3.697
  111MYC    H4021798   2.261   0.628   3.682
  111MYC    H4121799   2.357   0.771   3.722
  111MYC    C2421800   2.161   0.773   3.813
  111MYC    H4221801   2.127   0.876   3.825
  111MYC    H4321802   2.066   0.718   3.815
  111MYC    C2521803   2.238   0.756   3.946
  111MYC    H4421804   2.303   0.669   3.946
  111MYC    H4521805   2.312   0.836   3.960
  111MYC    C2621806   2.149   0.754   4.071
  111MYC    H4621807   2.088   0.845   4.077
  111MYC    H4721808   2.078   0.671   4.081
  111MYC    C2721809   2.238   0.769   4.196
  111MYC    H4821810   2.334   0.719   4.177
  111MYC    H4921811   2.266   0.874   4.206
  111MYC    C2821812   2.173   0.730   4.330
  111MYC    H5021813   2.073   0.775   4.332
  111MYC    H5121814   2.143   0.624   4.333
  111MYC    C2921815   2.243   0.773   4.460
  111MYC    H5221816   2.343   0.728   4.449
  111MYC    H5321817   2.255   0.882   4.465
  111MYC    C3021818   2.166   0.721   4.582
  111MYC    H5421819   2.066   0.767   4.587
  111MYC    H5521820   2.161   0.612   4.575
  111MYC    C3121821   2.239   0.756   4.713
  111MYC    H5621822   2.327   0.691   4.721
  111MYC    H5721823   2.251   0.865   4.714
  111MYC    C3221824   2.163   0.717   4.840
  111MYC    H5821825   2.068   0.772   4.844
  111MYC    H5921826   2.143   0.609   4.845
  111MYC    C3321827   2.239   0.762   4.966
  111MYC    H6021828   2.347   0.762   4.951
  111MYC    H6121829   2.211   0.866   4.988
  111MYC    C3421830   2.205   0.680   5.091
  111MYC    H6221831   2.096   0.676   5.100
  111MYC    H6321832   2.243   0.578   5.077
  111MYC    C3521833   2.251   0.741   5.225
  111MYC    H6421834   2.360   0.741   5.235
  111MYC    H6521835   2.216   0.844   5.213
  111MYC    C3621836   2.198   0.678   5.355
  111MYC    H6621837   2.090   0.660   5.350
  111MYC    H6721838   2.239   0.576   5.362
  111MYC    C3721839   2.240   0.760   5.477
  111MYC    H6821840   2.350   0.760   5.477
  111MYC    H6921841   2.204   0.861   5.453
  111MYC    C3821842   2.190   0.709   5.613
  111MYC    H7021843   2.081   0.719   5.613
  111MYC    H7121844   2.214   0.602   5.613
  111MYC    C3921845   2.251   0.771   5.740
  111MYC    H7221846   2.358   0.748   5.739
  111MYC    H7321847   2.258   0.881   5.732
  111MYC    C4021848   2.180   0.742   5.873
  111MYC    H7421849   2.101   0.817   5.884
  111MYC    H7521850   2.129   0.645   5.865
  111MYC    C4121851   2.269   0.742   5.998
  111MYC    H7621852   2.325   0.649   6.015
  111MYC    H7721853   2.340   0.825   5.984
  111MYC    C4221854   2.199   0.773   6.131
  111MYC    H7821855   2.116   0.843   6.116
  111MYC    H7921856   2.149   0.684   6.172
  111MYC    C4321857   2.292   0.821   6.243
  111MYC    H8021858   2.236   0.859   6.329
  111MYC    H8121859   2.350   0.906   6.205
  111MYC    H8221860   2.357   0.736   6.268
  112MYC   5H1521861   2.588   1.774   6.279
  112MYC    C8021862   2.608   1.818   6.180
  112MYC   3H1521863   2.540   1.904   6.185
  112MYC   4H1521864   2.714   1.848   6.173
  112MYC    C7921865   2.573   1.714   6.072
  112MYC   1H1521866   2.467   1.689   6.084
  112MYC   2H1521867   2.634   1.624   6.080
  112MYC    C7821868   2.571   1.777   5.931
  112MYC   9H1421869   2.661   1.840   5.922
  112MYC   0H1521870   2.490   1.849   5.914
  112MYC    C7721871   2.572   1.675   5.817
  112MYC   7H1421872   2.490   1.605   5.839
  112MYC   8H1421873   2.668   1.623   5.809
  112MYC    C7621874   2.559   1.748   5.682
  112MYC   5H1421875   2.628   1.833   5.675
  112MYC   6H1421876   2.457   1.790   5.678
  112MYC    C7521877   2.572   1.655   5.560
  112MYC   3H1421878   2.501   1.572   5.566
  112MYC   4H1421879   2.671   1.608   5.559
  112MYC    C7421880   2.540   1.729   5.429
  112MYC   1H1421881   2.583   1.830   5.435
  112MYC   2H1421882   2.431   1.744   5.431
  112MYC    C7321883   2.577   1.660   5.297
  112MYC   9H1321884   2.514   1.570   5.296
  112MYC   0H1421885   2.683   1.631   5.296
  112MYC    C7221886   2.545   1.745   5.173
  112MYC   7H1321887   2.597   1.841   5.174
  112MYC   8H1321888   2.437   1.760   5.174
  112MYC    C7121889   2.582   1.665   5.046
  112MYC   5H1321890   2.541   1.564   5.047
  112MYC   6H1321891   2.692   1.661   5.046
  112MYC    C7021892   2.544   1.742   4.918
  112MYC   3H1321893   2.606   1.832   4.921
  112MYC   4H1321894   2.439   1.774   4.919
  112MYC    C6921895   2.581   1.671   4.786
  112MYC   1H1321896   2.537   1.571   4.775
  112MYC   2H1321897   2.689   1.651   4.781
  112MYC    C6821898   2.542   1.756   4.664
  112MYC   9H1221899   2.611   1.840   4.658
  112MYC   0H1321900   2.437   1.789   4.671
  112MYC    C6721901   2.570   1.688   4.529
  112MYC   7H1221902   2.511   1.596   4.525
  112MYC   8H1221903   2.676   1.660   4.523
  112MYC    C6621904   2.533   1.769   4.403
  112MYC   5H1221905   2.607   1.850   4.393
  112MYC   6H1221906   2.435   1.819   4.407
  112MYC    C6521907   2.548   1.687   4.274
  112MYC   3H1221908   2.518   1.583   4.291
  112MYC   4H1221909   2.657   1.689   4.256
  112MYC    C6421910   2.464   1.739   4.156
  112MYC   1H1221911   2.498   1.842   4.135
  112MYC   2H1221912   2.358   1.741   4.182
  112MYC    C6321913   2.468   1.654   4.029
  112MYC   9H1121914   2.447   1.552   4.065
  112MYC   0H1221915   2.574   1.659   4.003
  112MYC    C6221916   2.373   1.707   3.920
  112MYC   7H1121917   2.407   1.809   3.900
  112MYC   8H1121918   2.267   1.698   3.944
  112MYC    C6121919   2.380   1.636   3.784
  112MYC   5H1121920   2.329   1.540   3.800
  112MYC   6H1121921   2.482   1.601   3.761
  112MYC    C6021922   2.315   1.716   3.673
  112MYC   4H1121923   2.252   1.799   3.705
  112MYC    C5821924   2.376   1.703   3.535
  112MYC   1H1121925   2.463   1.638   3.530
  112MYC    C5921926   2.245   1.634   3.567
  112MYC   2H1121927   2.157   1.685   3.532
  112MYC   3H1121928   2.245   1.525   3.575
  112MYC    C5721929   2.376   1.816   3.434
  112MYC   9H1021930   2.468   1.875   3.434
  112MYC   0H1121931   2.291   1.881   3.460
  112MYC    C5621932   2.364   1.757   3.293
  112MYC   7H1021933   2.271   1.699   3.281
  112MYC   8H1021934   2.439   1.680   3.272
  112MYC    C5521935   2.374   1.855   3.175
  112MYC   5H1021936   2.473   1.901   3.183
  112MYC   6H1021937   2.308   1.940   3.198
  112MYC    C5421938   2.367   1.790   3.036
  112MYC   3H1021939   2.265   1.752   3.020
  112MYC   4H1021940   2.428   1.699   3.034
  112MYC    C5321941   2.417   1.872   2.915
  112MYC   1H1021942   2.526   1.873   2.924
  112MYC   2H1021943   2.383   1.976   2.927
  112MYC    C5221944   2.381   1.824   2.774
  112MYC    H9921945   2.278   1.849   2.746
  112MYC   0H1021946   2.395   1.715   2.773
  112MYC    C5121947   2.481   1.887   2.676
  112MYC    H9721948   2.585   1.893   2.713
  112MYC    H9821949   2.452   1.993   2.667
  112MYC    C5021950   2.480   1.813   2.541
  112MYC    H9521951   2.377   1.779   2.523
  112MYC    H9621952   2.540   1.722   2.549
  112MYC    C4921953   2.524   1.906   2.427
  112MYC    H9321954   2.632   1.919   2.431
  112MYC    H9421955   2.493   2.011   2.438
  112MYC    C4821956   2.488   1.852   2.287
  112MYC    H9121957   2.383   1.873   2.262
  112MYC    H9221958   2.498   1.742   2.288
  112MYC    C4721959   2.562   1.906   2.164
  112MYC    H8921960   2.663   1.930   2.199
  112MYC    H9021961   2.505   1.994   2.132
  112MYC    C4621962   2.576   1.797   2.056
  112MYC    H8721963   2.477   1.754   2.042
  112MYC    H8821964   2.623   1.708   2.099
  112MYC    C4521965   2.650   1.836   1.927
  112MYC    H8521966   2.714   1.751   1.901
  112MYC    H8621967   2.719   1.920   1.945
  112MYC    C4421968   2.560   1.876   1.809
  112MYC    H8321969   2.624   1.885   1.720
  112MYC    H8421970   2.527   1.979   1.827
  112MYC    C1821971   2.435   1.799   1.770
  112MYC    H3121972   2.406   1.723   1.841
  112MYC    C1721973   2.329   1.878   1.697
  112MYC    H3021974   2.353   1.975   1.654
  112MYC    C1921975   2.402   1.767   1.626
  112MYC    H3221976   2.472   1.795   1.547
  112MYC    H3321977   2.337   1.684   1.601
  112MYC    C1621978   2.185   1.869   1.744
  112MYC    H2821979   2.157   1.774   1.792
  112MYC    H2921980   2.125   1.869   1.653
  112MYC    C1521981   2.143   1.992   1.828
  112MYC    H2621982   2.040   1.982   1.863
  112MYC    H2721983   2.150   2.084   1.769
  112MYC    C1421984   2.218   2.013   1.960
  112MYC    H2421985   2.321   2.034   1.927
  112MYC    H2521986   2.206   1.928   2.028
  112MYC    C1321987   2.155   2.138   2.024
  112MYC    H2221988   2.046   2.139   2.017
  112MYC    H2321989   2.184   2.222   1.960
  112MYC    C1221990   2.203   2.182   2.164
  112MYC    H2021991   2.306   2.218   2.161
  112MYC    H2121992   2.192   2.099   2.235
  112MYC    C1121993   2.123   2.302   2.218
  112MYC    H1821994   2.016   2.303   2.195
  112MYC    H1921995   2.157   2.393   2.167
  112MYC    C1021996   2.146   2.318   2.369
  112MYC    H1621997   2.135   2.423   2.397
  112MYC    H1721998   2.252   2.298   2.388
  112MYC     C921999   2.076   2.221   2.466
  112MYC    H1422000   2.111   2.123   2.433
  112MYC    H1522001   1.966   2.224   2.459
  112MYC     C822002   2.112   2.238   2.615
  112MYC    H1222003   2.064   2.324   2.664
  112MYC    H1322004   2.221   2.252   2.612
  112MYC     C722005   2.102   2.118   2.710
  112MYC    H1022006   2.180   2.044   2.689
  112MYC    H1122007   2.005   2.072   2.687
  112MYC     C622008   2.095   2.155   2.859
  112MYC     H822009   2.011   2.224   2.876
  112MYC     H922010   2.182   2.208   2.902
  112MYC     C522011   2.064   2.028   2.940
  112MYC     H622012   2.147   1.956   2.936
  112MYC     H722013   1.991   1.966   2.887
  112MYC     C422014   2.014   2.040   3.085
  112MYC     H422015   2.006   1.942   3.132
  112MYC     H522016   1.909   2.071   3.081
  112MYC     C222017   2.093   2.134   3.177
  112MYC     H222018   2.199   2.122   3.152
  112MYC     O322019   2.048   2.264   3.140
  112MYC     H322020   1.956   2.268   3.172
  112MYC     C122021   2.061   2.101   3.324
  112MYC     H122022   2.102   1.999   3.334
  112MYC    C8122023   1.912   2.098   3.352
  112MYC    O8222024   1.848   2.193   3.394
  112MYC    O8322025   1.861   1.973   3.351
  112MYC   6H1522026   1.766   1.985   3.371
  112MYC    C2022027   2.134   2.189   3.428
  112MYC    H3422028   2.235   2.178   3.387
  112MYC    H3522029   2.096   2.291   3.421
  112MYC    C2122030   2.131   2.135   3.572
  112MYC    H3622031   2.031   2.157   3.612
  112MYC    H3722032   2.136   2.025   3.571
  112MYC    C2222033   2.225   2.210   3.668
  112MYC    H3822034   2.321   2.211   3.615
  112MYC    H3922035   2.192   2.314   3.672
  112MYC    C2322036   2.242   2.134   3.801
  112MYC    H4022037   2.154   2.074   3.826
  112MYC    H4122038   2.322   2.058   3.800
  112MYC    C2422039   2.273   2.220   3.924
  112MYC    H4222040   2.336   2.308   3.906
  112MYC    H4322041   2.183   2.268   3.964
  112MYC    C2522042   2.327   2.132   4.038
  112MYC    H4422043   2.285   2.031   4.047
  112MYC    H4522044   2.435   2.123   4.026
  112MYC    C2622045   2.308   2.194   4.178
  112MYC    H4622046   2.356   2.292   4.181
  112MYC    H4722047   2.200   2.211   4.187
  112MYC    C2722048   2.356   2.111   4.298
  112MYC    H4822049   2.331   2.007   4.273
  112MYC    H4922050   2.464   2.121   4.314
  112MYC    C2822051   2.291   2.159   4.428
  112MYC    H5022052   2.310   2.265   4.452
  112MYC    H5122053   2.182   2.158   4.414
  112MYC    C2922054   2.325   2.074   4.551
  112MYC    H5222055   2.286   1.973   4.531
  112MYC    H5322056   2.434   2.076   4.570
  112MYC    C3022057   2.258   2.117   4.682
  112MYC    H5422058   2.281   2.222   4.704
  112MYC    H5522059   2.150   2.096   4.673
  112MYC    C3122060   2.306   2.035   4.803
  112MYC    H5622061   2.264   1.935   4.784
  112MYC    H5722062   2.413   2.029   4.823
  112MYC    C3222063   2.241   2.087   4.932
  112MYC    H5822064   2.262   2.194   4.941
  112MYC    H5922065   2.133   2.064   4.930
  112MYC    C3322066   2.291   2.026   5.064
  112MYC    H6022067   2.313   1.920   5.049
  112MYC    H6122068   2.389   2.074   5.080
  112MYC    C3422069   2.199   2.047   5.186
  112MYC    H6222070   2.207   2.151   5.219
  112MYC    H6322071   2.094   2.029   5.161
  112MYC    C3522072   2.251   1.967   5.307
  112MYC    H6422073   2.248   1.860   5.286
  112MYC    H6522074   2.357   1.994   5.312
  112MYC    C3622075   2.182   2.009   5.438
  112MYC    H6622076   2.192   2.118   5.446
  112MYC    H6722077   2.075   1.986   5.440
  112MYC    C3722078   2.236   1.953   5.570
  112MYC    H6822079   2.234   1.843   5.559
  112MYC    H6922080   2.344   1.972   5.583
  112MYC    C3822081   2.155   1.998   5.692
  112MYC    H7022082   2.165   2.106   5.707
  112MYC    H7122083   2.049   1.973   5.675
  112MYC    C3922084   2.206   1.922   5.815
  112MYC    H7222085   2.185   1.816   5.795
  112MYC    H7322086   2.315   1.912   5.812
  112MYC    C4022087   2.156   1.981   5.948
  112MYC    H7422088   2.186   2.086   5.964
  112MYC    H7522089   2.047   1.983   5.945
  112MYC    C4122090   2.201   1.907   6.076
  112MYC    H7622091   2.157   1.807   6.084
  112MYC    H7722092   2.309   1.891   6.068
  112MYC    C4222093   2.174   1.974   6.212
  112MYC    H7822094   2.219   2.073   6.206
  112MYC    H7922095   2.068   1.985   6.237
  112MYC    C4322096   2.245   1.903   6.328
  112MYC    H8022097   2.246   1.965   6.418
  112MYC    H8122098   2.346   1.871   6.301
  112MYC    H8222099   2.197   1.808   6.354
  113MYC   5H1522100   2.218   2.866   6.064
  113MYC    C8022101   2.283   2.779   6.072
  113MYC   3H1522102   2.357   2.780   6.153
  113MYC   4H1522103   2.221   2.690   6.090
  113MYC    C7922104   2.363   2.763   5.941
  113MYC   1H1522105   2.429   2.681   5.971
  113MYC   2H1522106   2.427   2.852   5.933
  113MYC    C7822107   2.294   2.724   5.809
  113MYC   9H1422108   2.222   2.804   5.790
  113MYC   0H1522109   2.236   2.634   5.834
  113MYC    C7722110   2.387   2.708   5.687
  113MYC   7H1422111   2.470   2.641   5.711
  113MYC   8H1422112   2.417   2.812   5.673
  113MYC    C7622113   2.311   2.645   5.569
  113MYC   5H1422114   2.227   2.705   5.531
  113MYC   6H1422115   2.268   2.550   5.604
  113MYC    C7522116   2.406   2.616   5.452
  113MYC   3H1422117   2.468   2.534   5.490
  113MYC   4H1422118   2.459   2.711   5.443
  113MYC    C7422119   2.343   2.581   5.316
  113MYC   1H1422120   2.307   2.674   5.271
  113MYC   2H1422121   2.255   2.515   5.325
  113MYC    C7322122   2.453   2.516   5.231
  113MYC   9H1322123   2.471   2.421   5.282
  113MYC   0H1422124   2.551   2.564   5.234
  113MYC    C7222125   2.411   2.485   5.086
  113MYC   7H1322126   2.386   2.581   5.039
  113MYC   8H1322127   2.322   2.421   5.082
  113MYC    C7122128   2.521   2.426   4.996
  113MYC   5H1322129   2.550   2.323   5.024
  113MYC   6H1322130   2.616   2.476   5.018
  113MYC    C7022131   2.474   2.417   4.850
  113MYC   3H1322132   2.458   2.520   4.818
  113MYC   4H1322133   2.378   2.365   4.840
  113MYC    C6922134   2.578   2.357   4.754
  113MYC   1H1322135   2.545   2.260   4.715
  113MYC   2H1322136   2.667   2.330   4.812
  113MYC    C6822137   2.618   2.444   4.633
  113MYC   9H1222138   2.692   2.516   4.671
  113MYC   0H1322139   2.528   2.500   4.605
  113MYC    C6722140   2.664   2.370   4.507
  113MYC   7H1222141   2.596   2.285   4.494
  113MYC   8H1222142   2.769   2.339   4.505
  113MYC    C6622143   2.640   2.459   4.384
  113MYC   5H1222144   2.692   2.554   4.398
  113MYC   6H1222145   2.534   2.482   4.370
  113MYC    C6522146   2.714   2.410   4.258
  113MYC   3H1222147   2.700   2.304   4.237
  113MYC   4H1222148   2.820   2.417   4.285
  113MYC    C6422149   2.690   2.505   4.139
  113MYC   1H1222150   2.750   2.597   4.145
  113MYC   2H1222151   2.581   2.514   4.135
  113MYC    C6322152   2.720   2.436   4.005
  113MYC   9H1122153   2.660   2.346   3.985
  113MYC   0H1222154   2.823   2.398   4.009
  113MYC    C6222155   2.701   2.530   3.886
  113MYC   7H1122156   2.785   2.600   3.890
  113MYC   8H1122157   2.612   2.594   3.898
  113MYC    C6122158   2.695   2.459   3.750
  113MYC   5H1122159   2.617   2.382   3.761
  113MYC   6H1122160   2.788   2.403   3.731
  113MYC    C6022161   2.662   2.553   3.635
  113MYC   4H1122162   2.734   2.632   3.614
  113MYC    C5822163   2.589   2.500   3.514
  113MYC   1H1122164   2.557   2.396   3.523
  113MYC    C5922165   2.516   2.585   3.615
  113MYC   2H1122166   2.490   2.684   3.579
  113MYC   3H1122167   2.444   2.535   3.679
  113MYC    C5722168   2.628   2.545   3.374
  113MYC   9H1022169   2.722   2.492   3.354
  113MYC   0H1122170   2.650   2.652   3.384
  113MYC    C5622171   2.518   2.530   3.268
  113MYC   7H1022172   2.481   2.631   3.246
  113MYC   8H1022173   2.432   2.467   3.293
  113MYC    C5522174   2.578   2.484   3.134
  113MYC   5H1022175   2.601   2.378   3.143
  113MYC   6H1022176   2.678   2.524   3.115
  113MYC    C5422177   2.495   2.508   3.006
  113MYC   3H1022178   2.472   2.614   2.988
  113MYC   4H1022179   2.398   2.458   3.016
  113MYC    C5322180   2.572   2.472   2.878
  113MYC   1H1022181   2.610   2.370   2.889
  113MYC   2H1022182   2.664   2.533   2.878
  113MYC    C5222183   2.497   2.486   2.744
  113MYC    H9922184   2.518   2.590   2.716
  113MYC   0H1022185   2.390   2.472   2.760
  113MYC    C5122186   2.553   2.406   2.626
  113MYC    H9722187   2.512   2.305   2.637
  113MYC    H9822188   2.662   2.401   2.639
  113MYC    C5022189   2.504   2.455   2.488
  113MYC    H9522190   2.542   2.558   2.485
  113MYC    H9622191   2.395   2.459   2.479
  113MYC    C4922192   2.572   2.372   2.378
  113MYC    H9322193   2.540   2.267   2.386
  113MYC    H9422194   2.680   2.367   2.394
  113MYC    C4822195   2.536   2.416   2.235
  113MYC    H9122196   2.563   2.522   2.230
  113MYC    H9222197   2.430   2.404   2.208
  113MYC    C4722198   2.620   2.339   2.132
  113MYC    H8922199   2.604   2.231   2.147
  113MYC    H9022200   2.727   2.360   2.142
  113MYC    C4622201   2.574   2.373   1.989
  113MYC    H8722202   2.609   2.475   1.967
  113MYC    H8822203   2.465   2.366   1.987
  113MYC    C4522204   2.639   2.279   1.886
  113MYC    H8522205   2.600   2.182   1.915
  113MYC    H8622206   2.747   2.276   1.908
  113MYC    C4422207   2.608   2.306   1.737
  113MYC    H8322208   2.659   2.224   1.684
  113MYC    H8422209   2.656   2.401   1.709
  113MYC    C1822210   2.461   2.303   1.701
  113MYC    H3122211   2.401   2.234   1.760
  113MYC    C1722212   2.405   2.435   1.654
  113MYC    H3022213   2.470   2.520   1.634
  113MYC    C1922214   2.418   2.320   1.558
  113MYC    H3222215   2.495   2.326   1.481
  113MYC    H3322216   2.326   2.276   1.519
  113MYC    C1622217   2.260   2.468   1.690
  113MYC    H2822218   2.217   2.394   1.758
  113MYC    H2922219   2.199   2.484   1.601
  113MYC    C1522220   2.255   2.600   1.769
  113MYC    H2622221   2.160   2.649   1.746
  113MYC    H2722222   2.329   2.672   1.733
  113MYC    C1422223   2.260   2.580   1.922
  113MYC    H2422224   2.362   2.576   1.960
  113MYC    H2522225   2.196   2.499   1.960
  113MYC    C1322226   2.212   2.713   1.981
  113MYC    H2222227   2.112   2.738   1.943
  113MYC    H2322228   2.273   2.800   1.952
  113MYC    C1222229   2.192   2.720   2.133
  113MYC    H2022230   2.288   2.694   2.179
  113MYC    H2122231   2.121   2.642   2.164
  113MYC    C1122232   2.142   2.854   2.191
  113MYC    H1822233   2.041   2.885   2.162
  113MYC    H1922234   2.213   2.930   2.156
  113MYC    C1022235   2.150   2.848   2.344
  113MYC    H1622236   2.123   2.948   2.380
  113MYC    H1722237   2.256   2.830   2.367
  113MYC     C922238   2.066   2.747   2.424
  113MYC    H1422239   2.097   2.644   2.402
  113MYC    H1522240   1.958   2.754   2.403
  113MYC     C822241   2.075   2.776   2.575
  113MYC    H1222242   2.008   2.860   2.595
  113MYC    H1322243   2.178   2.808   2.595
  113MYC     C722244   2.049   2.652   2.662
  113MYC    H1022245   2.122   2.571   2.643
  113MYC    H1122246   1.953   2.606   2.638
  113MYC     C622247   2.051   2.706   2.806
  113MYC     H822248   1.965   2.772   2.818
  113MYC     H922249   2.142   2.765   2.825
  113MYC     C522250   2.049   2.597   2.914
  113MYC     H622251   2.152   2.565   2.933
  113MYC     H722252   2.002   2.503   2.881
  113MYC     C422253   1.986   2.640   3.047
  113MYC     H422254   1.971   2.541   3.093
  113MYC     H522255   1.892   2.695   3.034
  113MYC     C222256   2.074   2.721   3.144
  113MYC     H222257   2.063   2.673   3.242
  113MYC     O322258   2.211   2.722   3.105
  113MYC     H322259   2.209   2.662   3.028
  113MYC     C122260   2.027   2.864   3.175
  113MYC     H122261   1.920   2.853   3.192
  113MYC    C8122262   2.041   2.955   3.054
  113MYC    O8222263   2.146   3.012   3.027
  113MYC    O8322264   1.931   2.979   2.980
  113MYC   6H1522265   1.964   3.046   2.918
  113MYC    C2022266   2.076   2.933   3.304
  113MYC    H3422267   2.185   2.946   3.299
  113MYC    H3522268   2.034   3.034   3.298
  113MYC    C2122269   2.032   2.873   3.438
  113MYC    H3622270   1.926   2.852   3.420
  113MYC    H3722271   2.069   2.772   3.458
  113MYC    C2222272   2.060   2.967   3.556
  113MYC    H3822273   2.169   2.978   3.559
  113MYC    H3922274   2.011   3.063   3.537
  113MYC    C2322275   2.008   2.904   3.687
  113MYC    H4022276   1.903   2.875   3.678
  113MYC    H4122277   2.057   2.807   3.705
  113MYC    C2422278   2.027   2.984   3.817
  113MYC    H4222279   2.132   2.989   3.846
  113MYC    H4322280   1.997   3.086   3.791
  113MYC    C2522281   1.938   2.931   3.931
  113MYC    H4422282   1.837   2.924   3.887
  113MYC    H4522283   1.977   2.831   3.952
  113MYC    C2622284   1.926   3.023   4.053
  113MYC    H4622285   1.958   3.127   4.035
  113MYC    H4722286   1.821   3.026   4.085
  113MYC    C2722287   2.010   2.959   4.165
  113MYC    H4822288   1.986   2.853   4.183
  113MYC    H4922289   2.115   2.963   4.133
  113MYC    C2822290   2.002   3.047   4.291
  113MYC    H5022291   2.069   3.133   4.290
  113MYC    H5122292   1.903   3.095   4.299
  113MYC    C2922293   2.040   2.973   4.420
  113MYC    H5222294   1.993   2.874   4.414
  113MYC    H5322295   2.150   2.968   4.425
  113MYC    C3022296   1.991   3.034   4.552
  113MYC    H5422297   2.045   3.127   4.571
  113MYC    H5522298   1.887   3.067   4.541
  113MYC    C3122299   2.000   2.941   4.675
  113MYC    H5622300   1.934   2.856   4.651
  113MYC    H5722301   2.099   2.896   4.682
  113MYC    C3222302   1.955   3.007   4.807
  113MYC    H5822303   1.996   3.109   4.806
  113MYC    H5922304   1.846   3.018   4.807
  113MYC    C3322305   2.002   2.934   4.933
  113MYC    H6022306   1.954   2.835   4.927
  113MYC    H6122307   2.110   2.919   4.923
  113MYC    C3422308   1.969   3.022   5.055
  113MYC    H6222309   2.004   3.125   5.040
  113MYC    H6322310   1.861   3.024   5.069
  113MYC    C3522311   2.030   2.975   5.189
  113MYC    H6422312   2.020   2.867   5.202
  113MYC    H6522313   2.136   3.000   5.200
  113MYC    C3622314   1.958   3.034   5.311
  113MYC    H6622315   1.945   3.143   5.304
  113MYC    H6722316   1.858   2.994   5.328
  113MYC    C3722317   2.031   3.005   5.443
  113MYC    H6822318   2.023   2.897   5.462
  113MYC    H6922319   2.137   3.033   5.433
  113MYC    C3822320   1.972   3.083   5.562
  113MYC    H7022321   1.990   3.191   5.554
  113MYC    H7122322   1.863   3.070   5.567
  113MYC    C3922323   2.042   3.035   5.691
  113MYC    H7222324   2.023   2.927   5.696
  113MYC    H7322325   2.150   3.050   5.684
  113MYC    C4022326   1.998   3.114   5.815
  113MYC    H7422327   2.028   3.218   5.798
  113MYC    H7522328   1.889   3.106   5.808
  113MYC    C4122329   2.040   3.054   5.951
  113MYC    H7622330   1.991   2.956   5.962
  113MYC    H7722331   2.147   3.032   5.944
  113MYC    C4222332   2.000   3.148   6.066
  113MYC    H7822333   2.048   3.244   6.040
  113MYC    H7922334   1.895   3.179   6.070
  113MYC    C4322335   2.036   3.100   6.207
  113MYC    H8022336   2.013   3.168   6.290
  113MYC    H8122337   2.145   3.087   6.203
  113MYC    H8222338   2.002   2.996   6.211
  114MYC   5H1522339   2.381   3.434   6.100
  114MYC    C8022340   2.363   3.507   6.020
  114MYC   3H1522341   2.297   3.584   6.060
  114MYC   4H1522342   2.456   3.557   5.991
  114MYC    C7922343   2.307   3.429   5.900
  114MYC   1H1522344   2.203   3.401   5.918
  114MYC   2H1522345   2.370   3.340   5.889
  114MYC    C7822346   2.315   3.515   5.773
  114MYC   9H1422347   2.419   3.507   5.738
  114MYC   0H1522348   2.285   3.618   5.798
  114MYC    C7722349   2.238   3.456   5.653
  114MYC   7H1422350   2.130   3.445   5.668
  114MYC   8H1422351   2.265   3.350   5.645
  114MYC    C7622352   2.265   3.544   5.529
  114MYC   5H1422353   2.372   3.541   5.507
  114MYC   6H1422354   2.237   3.648   5.547
  114MYC    C7522355   2.194   3.486   5.405
  114MYC   3H1422356   2.086   3.474   5.414
  114MYC   4H1422357   2.235   3.384   5.398
  114MYC    C7422358   2.242   3.554   5.276
  114MYC   1H1422359   2.340   3.516   5.245
  114MYC   2H1422360   2.246   3.663   5.287
  114MYC    C7322361   2.142   3.518   5.165
  114MYC   9H1322362   2.044   3.559   5.193
  114MYC   0H1422363   2.136   3.409   5.152
  114MYC    C7222364   2.198   3.564   5.030
  114MYC   7H1322365   2.305   3.544   5.017
  114MYC   8H1322366   2.197   3.674   5.028
  114MYC    C7122367   2.133   3.504   4.904
  114MYC   5H1322368   2.029   3.536   4.898
  114MYC   6H1322369   2.113   3.397   4.904
  114MYC    C7022370   2.218   3.533   4.778
  114MYC   3H1322371   2.320   3.510   4.810
  114MYC   4H1322372   2.229   3.641   4.763
  114MYC    C6922373   2.172   3.455   4.654
  114MYC   1H1322374   2.062   3.455   4.651
  114MYC   2H1322375   2.206   3.351   4.667
  114MYC    C6822376   2.224   3.506   4.519
  114MYC   9H1222377   2.333   3.494   4.518
  114MYC   0H1322378   2.201   3.613   4.514
  114MYC    C6722379   2.169   3.425   4.401
  114MYC   7H1222380   2.075   3.471   4.366
  114MYC   8H1222381   2.144   3.320   4.421
  114MYC    C6622382   2.271   3.428   4.286
  114MYC   5H1222383   2.351   3.355   4.299
  114MYC   6H1222384   2.324   3.524   4.279
  114MYC    C6522385   2.196   3.393   4.157
  114MYC   3H1222386   2.131   3.479   4.135
  114MYC   4H1222387   2.142   3.297   4.160
  114MYC    C6422388   2.289   3.383   4.035
  114MYC   1H1222389   2.369   3.314   4.065
  114MYC   2H1222390   2.342   3.476   4.009
  114MYC    C6322391   2.206   3.340   3.913
  114MYC   9H1122392   2.111   3.394   3.904
  114MYC   0H1222393   2.189   3.232   3.926
  114MYC    C6222394   2.291   3.381   3.791
  114MYC   7H1122395   2.389   3.332   3.786
  114MYC   8H1122396   2.312   3.489   3.796
  114MYC    C6122397   2.212   3.351   3.662
  114MYC   5H1122398   2.149   3.439   3.642
  114MYC   6H1122399   2.157   3.256   3.659
  114MYC    C6022400   2.310   3.341   3.547
  114MYC   4H1122401   2.364   3.247   3.560
  114MYC    C5822402   2.271   3.384   3.407
  114MYC   1H1122403   2.164   3.404   3.401
  114MYC    C5922404   2.364   3.469   3.489
  114MYC   2H1122405   2.471   3.483   3.474
  114MYC   3H1122406   2.322   3.558   3.536
  114MYC    C5722407   2.317   3.306   3.285
  114MYC   9H1022408   2.239   3.235   3.257
  114MYC   0H1122409   2.407   3.250   3.314
  114MYC    C5622410   2.362   3.410   3.181
  114MYC   7H1022411   2.469   3.429   3.195
  114MYC   8H1022412   2.295   3.495   3.192
  114MYC    C5522413   2.339   3.355   3.039
  114MYC   5H1022414   2.238   3.379   3.004
  114MYC   6H1022415   2.340   3.246   3.051
  114MYC    C5422416   2.445   3.373   2.929
  114MYC   3H1022417   2.536   3.332   2.973
  114MYC   4H1022418   2.442   3.480   2.906
  114MYC    C5322419   2.402   3.303   2.799
  114MYC   1H1022420   2.302   3.334   2.766
  114MYC   2H1022421   2.391   3.197   2.822
  114MYC    C5222422   2.498   3.316   2.679
  114MYC    H9922423   2.592   3.263   2.697
  114MYC   0H1022424   2.529   3.420   2.662
  114MYC    C5122425   2.428   3.267   2.551
  114MYC    H9722426   2.343   3.335   2.537
  114MYC    H9822427   2.371   3.174   2.564
  114MYC    C5022428   2.526   3.277   2.433
  114MYC    H9522429   2.607   3.203   2.435
  114MYC    H9622430   2.561   3.381   2.436
  114MYC    C4922431   2.458   3.251   2.297
  114MYC    H9322432   2.372   3.318   2.286
  114MYC    H9422433   2.421   3.149   2.307
  114MYC    C4822434   2.551   3.267   2.175
  114MYC    H9122435   2.627   3.188   2.167
  114MYC    H9222436   2.596   3.365   2.194
  114MYC    C4722437   2.473   3.266   2.042
  114MYC    H8922438   2.404   3.350   2.030
  114MYC    H9022439   2.405   3.180   2.038
  114MYC    C4622440   2.566   3.264   1.920
  114MYC    H8722441   2.624   3.171   1.931
  114MYC    H8822442   2.626   3.356   1.923
  114MYC    C4522443   2.481   3.242   1.794
  114MYC    H8522444   2.403   3.317   1.779
  114MYC    H8622445   2.427   3.149   1.816
  114MYC    C4422446   2.572   3.218   1.673
  114MYC    H8322447   2.525   3.147   1.604
  114MYC    H8422448   2.666   3.170   1.704
  114MYC    C1822449   2.597   3.346   1.593
  114MYC    H3122450   2.514   3.367   1.526
  114MYC    C1722451   2.686   3.455   1.647
  114MYC    H3022452   2.725   3.428   1.744
  114MYC    C1922453   2.736   3.363   1.539
  114MYC    H3222454   2.823   3.303   1.567
  114MYC    H3322455   2.755   3.409   1.442
  114MYC    C1622456   2.664   3.600   1.607
  114MYC    H2822457   2.557   3.617   1.623
  114MYC    H2922458   2.693   3.612   1.501
  114MYC    C1522459   2.738   3.704   1.693
  114MYC    H2622460   2.710   3.804   1.660
  114MYC    H2722461   2.846   3.698   1.679
  114MYC    C1422462   2.710   3.692   1.844
  114MYC    H2422463   2.743   3.596   1.886
  114MYC    H2522464   2.602   3.692   1.864
  114MYC    C1322465   2.769   3.812   1.921
  114MYC    H2222466   2.756   3.905   1.863
  114MYC    H2322467   2.876   3.790   1.927
  114MYC    C1222468   2.701   3.821   2.059
  114MYC    H2022469   2.716   3.723   2.104
  114MYC    H2122470   2.594   3.838   2.041
  114MYC    C1122471   2.754   3.926   2.159
  114MYC    H1822472   2.700   4.019   2.138
  114MYC    H1922473   2.853   3.959   2.126
  114MYC    C1022474   2.752   3.895   2.309
  114MYC    H1622475   2.796   3.981   2.361
  114MYC    H1722476   2.819   3.810   2.326
  114MYC     C922477   2.621   3.849   2.376
  114MYC    H1422478   2.619   3.740   2.388
  114MYC    H1522479   2.535   3.874   2.313
  114MYC     C822480   2.599   3.909   2.516
  114MYC    H1222481   2.494   3.893   2.542
  114MYC    H1322482   2.616   4.016   2.498
  114MYC     C722483   2.693   3.856   2.625
  114MYC    H1022484   2.688   3.925   2.710
  114MYC    H1122485   2.799   3.863   2.596
  114MYC     C622486   2.654   3.713   2.666
  114MYC     H822487   2.694   3.640   2.595
  114MYC     H922488   2.545   3.700   2.665
  114MYC     C522489   2.688   3.675   2.811
  114MYC     H622490   2.789   3.715   2.830
  114MYC     H722491   2.692   3.566   2.824
  114MYC     C422492   2.593   3.738   2.915
  114MYC     H422493   2.492   3.703   2.891
  114MYC     H522494   2.582   3.846   2.904
  114MYC     C222495   2.625   3.698   3.060
  114MYC     H222496   2.528   3.681   3.107
  114MYC     O322497   2.689   3.570   3.066
  114MYC     H322498   2.750   3.565   3.141
  114MYC     C122499   2.696   3.814   3.132
  114MYC     H122500   2.623   3.894   3.144
  114MYC    C8122501   2.811   3.872   3.050
  114MYC    O8222502   2.801   3.969   2.977
  114MYC    O8322503   2.929   3.807   3.055
  114MYC   6H1522504   2.991   3.854   2.997
  114MYC    C2022505   2.740   3.778   3.275
  114MYC    H3422506   2.786   3.680   3.291
  114MYC    H3522507   2.813   3.854   3.303
  114MYC    C2122508   2.633   3.809   3.382
  114MYC    H3622509   2.638   3.915   3.411
  114MYC    H3722510   2.532   3.796   3.341
  114MYC    C2222511   2.658   3.724   3.507
  114MYC    H3822512   2.641   3.617   3.487
  114MYC    H3922513   2.764   3.727   3.533
  114MYC    C2322514   2.576   3.772   3.628
  114MYC    H4022515   2.548   3.877   3.616
  114MYC    H4122516   2.482   3.715   3.630
  114MYC    C2422517   2.647   3.759   3.764
  114MYC    H4222518   2.654   3.651   3.778
  114MYC    H4322519   2.750   3.797   3.768
  114MYC    C2522520   2.562   3.827   3.872
  114MYC    H4422521   2.548   3.935   3.859
  114MYC    H4522522   2.458   3.792   3.865
  114MYC    C2622523   2.624   3.792   4.008
  114MYC    H4622524   2.659   3.688   4.007
  114MYC    H4722525   2.717   3.851   4.020
  114MYC    C2722526   2.538   3.826   4.131
  114MYC    H4822527   2.527   3.935   4.140
  114MYC    H4922528   2.437   3.782   4.127
  114MYC    C2822529   2.613   3.783   4.258
  114MYC    H5022530   2.640   3.677   4.250
  114MYC    H5122531   2.703   3.846   4.262
  114MYC    C2922532   2.535   3.805   4.389
  114MYC    H5222533   2.469   3.892   4.390
  114MYC    H5322534   2.455   3.731   4.402
  114MYC    C3022535   2.627   3.799   4.512
  114MYC    H5422536   2.660   3.694   4.514
  114MYC    H5522537   2.720   3.850   4.488
  114MYC    C3122538   2.544   3.848   4.632
  114MYC    H5622539   2.495   3.945   4.620
  114MYC    H5722540   2.463   3.775   4.646
  114MYC    C3222541   2.635   3.846   4.757
  114MYC    H5822542   2.693   3.753   4.759
  114MYC    H5922543   2.713   3.919   4.733
  114MYC    C3322544   2.574   3.895   4.889
  114MYC    H6022545   2.524   3.991   4.872
  114MYC    H6122546   2.487   3.832   4.913
  114MYC    C3422547   2.684   3.901   4.997
  114MYC    H6222548   2.745   3.810   4.988
  114MYC    H6322549   2.749   3.987   4.976
  114MYC    C3522550   2.620   3.906   5.137
  114MYC    H6422551   2.547   3.988   5.140
  114MYC    H6522552   2.564   3.813   5.152
  114MYC    C3622553   2.729   3.927   5.244
  114MYC    H6622554   2.818   3.865   5.231
  114MYC    H6722555   2.760   4.032   5.229
  114MYC    C3722556   2.666   3.914   5.384
  114MYC    H6822557   2.595   3.992   5.414
  114MYC    H6922558   2.612   3.819   5.382
  114MYC    C3822559   2.772   3.900   5.494
  114MYC    H7022560   2.830   3.810   5.473
  114MYC    H7122561   2.840   3.987   5.502
  114MYC    C3922562   2.711   3.890   5.635
  114MYC    H7222563   2.621   3.951   5.647
  114MYC    H7322564   2.678   3.786   5.648
  114MYC    C4022565   2.809   3.927   5.747
  114MYC    H7422566   2.896   3.863   5.729
  114MYC    H7522567   2.829   4.035   5.741
  114MYC    C4122568   2.760   3.891   5.889
  114MYC    H7622569   2.655   3.920   5.895
  114MYC    H7722570   2.765   3.783   5.906
  114MYC    C4222571   2.847   3.969   5.989
  114MYC    H7822572   2.954   3.962   5.962
  114MYC    H7922573   2.830   4.075   5.970
  114MYC    C4322574   2.825   3.950   6.140
  114MYC    H8022575   2.860   4.033   6.203
  114MYC    H8122576   2.877   3.861   6.175
  114MYC    H8222577   2.718   3.941   6.165
  115MYC   5H1522578   2.180   4.027   6.167
  115MYC    C8022579   2.280   4.058   6.134
  115MYC   3H1522580   2.290   4.167   6.133
  115MYC   4H1522581   2.345   4.008   6.208
  115MYC    C7922582   2.304   3.984   6.002
  115MYC   1H1522583   2.234   3.901   5.990
  115MYC   2H1522584   2.401   3.935   6.018
  115MYC    C7822585   2.298   4.077   5.879
  115MYC   9H1422586   2.378   4.150   5.892
  115MYC   0H1522587   2.199   4.123   5.871
  115MYC    C7722588   2.309   3.994   5.750
  115MYC   7H1422589   2.216   3.935   5.740
  115MYC   8H1422590   2.391   3.921   5.748
  115MYC    C7622591   2.319   4.077   5.621
  115MYC   5H1422592   2.416   4.129   5.624
  115MYC   6H1422593   2.259   4.168   5.622
  115MYC    C7522594   2.296   3.980   5.504
  115MYC   3H1422595   2.210   3.913   5.515
  115MYC   4H1422596   2.382   3.914   5.490
  115MYC    C7422597   2.274   4.058   5.373
  115MYC   1H1422598   2.356   4.129   5.359
  115MYC   2H1422599   2.182   4.118   5.380
  115MYC    C7322600   2.260   3.966   5.250
  115MYC   9H1322601   2.167   3.911   5.269
  115MYC   0H1422602   2.346   3.898   5.247
  115MYC    C7222603   2.251   4.052   5.123
  115MYC   7H1322604   2.344   4.110   5.114
  115MYC   8H1322605   2.168   4.122   5.138
  115MYC    C7122606   2.219   3.967   4.999
  115MYC   5H1322607   2.124   3.913   5.007
  115MYC   6H1322608   2.291   3.885   4.988
  115MYC    C7022609   2.219   4.052   4.871
  115MYC   3H1322610   2.313   4.109   4.870
  115MYC   4H1322611   2.139   4.125   4.892
  115MYC    C6922612   2.195   3.971   4.743
  115MYC   1H1322613   2.100   3.917   4.751
  115MYC   2H1322614   2.281   3.903   4.734
  115MYC    C6822615   2.188   4.071   4.626
  115MYC   9H1222616   2.279   4.131   4.614
  115MYC   0H1322617   2.102   4.139   4.639
  115MYC    C6722618   2.163   3.989   4.499
  115MYC   7H1222619   2.074   3.927   4.514
  115MYC   8H1222620   2.253   3.927   4.487
  115MYC    C6622621   2.139   4.069   4.370
  115MYC   5H1222622   2.216   4.145   4.353
  115MYC   6H1222623   2.044   4.120   4.390
  115MYC    C6522624   2.113   3.970   4.255
  115MYC   3H1222625   2.011   3.930   4.264
  115MYC   4H1222626   2.172   3.878   4.255
  115MYC    C6422627   2.139   4.035   4.118
  115MYC   1H1222628   2.247   4.037   4.099
  115MYC   2H1222629   2.098   4.137   4.123
  115MYC    C6322630   2.071   3.962   4.001
  115MYC   9H1122631   1.962   3.968   4.014
  115MYC   0H1222632   2.098   3.856   3.999
  115MYC    C6222633   2.104   4.030   3.867
  115MYC   7H1122634   2.212   4.048   3.863
  115MYC   8H1122635   2.056   4.129   3.866
  115MYC    C6122636   2.055   3.949   3.745
  115MYC   5H1122637   1.995   4.025   3.694
  115MYC   6H1122638   1.990   3.873   3.788
  115MYC    C6022639   2.160   3.900   3.647
  115MYC   4H1122640   2.185   3.796   3.670
  115MYC    C5822641   2.160   3.952   3.506
  115MYC   1H1122642   2.075   4.019   3.493
  115MYC    C5922643   2.272   3.989   3.599
  115MYC   2H1122644   2.366   3.939   3.573
  115MYC   3H1122645   2.280   4.092   3.633
  115MYC    C5722646   2.198   3.868   3.385
  115MYC   9H1022647   2.126   3.789   3.358
  115MYC   0H1122648   2.290   3.812   3.406
  115MYC    C5622649   2.208   3.956   3.259
  115MYC   7H1022650   2.298   4.019   3.268
  115MYC   8H1022651   2.127   4.028   3.241
  115MYC    C5522652   2.216   3.872   3.130
  115MYC   5H1022653   2.131   3.804   3.128
  115MYC   6H1022654   2.303   3.808   3.145
  115MYC    C5422655   2.243   3.952   3.001
  115MYC   3H1022656   2.348   3.984   2.999
  115MYC   4H1022657   2.190   4.048   3.005
  115MYC    C5322658   2.202   3.876   2.874
  115MYC   1H1022659   2.094   3.862   2.865
  115MYC   2H1022660   2.239   3.773   2.876
  115MYC    C5222661   2.260   3.943   2.748
  115MYC    H9922662   2.369   3.950   2.748
  115MYC   0H1022663   2.232   4.049   2.754
  115MYC    C5122664   2.196   3.883   2.621
  115MYC    H9722665   2.088   3.865   2.632
  115MYC    H9822666   2.234   3.782   2.602
  115MYC    C5022667   2.225   3.964   2.494
  115MYC    H9522668   2.332   3.975   2.473
  115MYC    H9622669   2.196   4.070   2.500
  115MYC    C4922670   2.164   3.900   2.368
  115MYC    H9322671   2.058   3.874   2.381
  115MYC    H9422672   2.215   3.804   2.350
  115MYC    C4822673   2.186   3.985   2.243
  115MYC    H9122674   2.293   4.009   2.236
  115MYC    H9222675   2.136   4.080   2.268
  115MYC    C4722676   2.135   3.941   2.105
  115MYC    H8922677   2.026   3.931   2.116
  115MYC    H9022678   2.183   3.845   2.081
  115MYC    C4622679   2.176   4.036   1.991
  115MYC    H8722680   2.283   4.018   1.973
  115MYC    H8822681   2.168   4.138   2.032
  115MYC    C4522682   2.095   4.029   1.861
  115MYC    H8522683   1.989   4.037   1.890
  115MYC    H8622684   2.097   3.933   1.807
  115MYC    C4422685   2.138   4.141   1.766
  115MYC    H8322686   2.089   4.129   1.669
  115MYC    H8422687   2.245   4.125   1.746
  115MYC    C1822688   2.106   4.283   1.811
  115MYC    H3122689   2.111   4.311   1.916
  115MYC    C1722690   2.178   4.385   1.727
  115MYC    H3022691   2.214   4.368   1.626
  115MYC    C1922692   2.028   4.380   1.726
  115MYC    H3222693   1.983   4.351   1.632
  115MYC    H3322694   1.963   4.453   1.774
  115MYC    C1622695   2.256   4.502   1.787
  115MYC    H2822696   2.196   4.572   1.846
  115MYC    H2922697   2.289   4.567   1.704
  115MYC    C1522698   2.383   4.458   1.861
  115MYC    H2622699   2.443   4.550   1.854
  115MYC    H2722700   2.439   4.379   1.810
  115MYC    C1422701   2.360   4.415   2.006
  115MYC    H2422702   2.310   4.318   2.020
  115MYC    H2522703   2.276   4.471   2.048
  115MYC    C1322704   2.481   4.424   2.102
  115MYC    H2222705   2.516   4.527   2.112
  115MYC    H2322706   2.569   4.373   2.062
  115MYC    C1222707   2.444   4.361   2.237
  115MYC    H2022708   2.423   4.254   2.229
  115MYC    H2122709   2.346   4.397   2.271
  115MYC    C1122710   2.555   4.402   2.337
  115MYC    H1822711   2.556   4.510   2.355
  115MYC    H1922712   2.651   4.368   2.297
  115MYC    C1022713   2.544   4.346   2.480
  115MYC    H1622714   2.642   4.355   2.528
  115MYC    H1722715   2.534   4.237   2.487
  115MYC     C922716   2.427   4.403   2.562
  115MYC    H1422717   2.332   4.400   2.507
  115MYC    H1522718   2.448   4.509   2.583
  115MYC     C822719   2.397   4.333   2.695
  115MYC    H1222720   2.489   4.325   2.755
  115MYC    H1322721   2.364   4.230   2.677
  115MYC     C722722   2.308   4.409   2.794
  115MYC    H1022723   2.209   4.435   2.753
  115MYC    H1122724   2.350   4.503   2.833
  115MYC     C622725   2.277   4.322   2.917
  115MYC     H822726   2.356   4.250   2.941
  115MYC     H922727   2.190   4.262   2.887
  115MYC     C522728   2.246   4.401   3.045
  115MYC     H622729   2.200   4.330   3.115
  115MYC     H722730   2.177   4.484   3.025
  115MYC     C422731   2.370   4.459   3.114
  115MYC     H422732   2.345   4.554   3.163
  115MYC     H522733   2.446   4.487   3.040
  115MYC     C222734   2.423   4.369   3.228
  115MYC     H222735   2.341   4.350   3.298
  115MYC     O322736   2.467   4.241   3.185
  115MYC     H322737   2.555   4.247   3.143
  115MYC     C122738   2.529   4.450   3.304
  115MYC     H122739   2.488   4.543   3.345
  115MYC    C8122740   2.644   4.484   3.210
  115MYC    O8222741   2.687   4.595   3.185
  115MYC    O8322742   2.709   4.376   3.161
  115MYC   6H1522743   2.789   4.418   3.127
  115MYC    C2022744   2.582   4.380   3.430
  115MYC    H3422745   2.637   4.287   3.410
  115MYC    H3522746   2.654   4.443   3.484
  115MYC    C2122747   2.467   4.358   3.530
  115MYC    H3622748   2.394   4.438   3.514
  115MYC    H3722749   2.431   4.259   3.501
  115MYC    C2222750   2.498   4.359   3.681
  115MYC    H3822751   2.413   4.318   3.737
  115MYC    H3922752   2.585   4.293   3.690
  115MYC    C2322753   2.523   4.500   3.737
  115MYC    H4022754   2.582   4.559   3.667
  115MYC    H4122755   2.426   4.548   3.756
  115MYC    C2422756   2.598   4.504   3.871
  115MYC    H4222757   2.697   4.464   3.845
  115MYC    H4322758   2.609   4.604   3.915
  115MYC    C2522759   2.530   4.409   3.970
  115MYC    H4422760   2.426   4.444   3.977
  115MYC    H4522761   2.537   4.303   3.940
  115MYC    C2622762   2.573   4.438   4.115
  115MYC    H4622763   2.679   4.414   4.133
  115MYC    H4722764   2.559   4.546   4.129
  115MYC    C2722765   2.493   4.359   4.220
  115MYC    H4822766   2.386   4.348   4.198
  115MYC    H4922767   2.531   4.257   4.229
  115MYC    C2822768   2.492   4.440   4.351
  115MYC    H5022769   2.600   4.448   4.369
  115MYC    H5122770   2.441   4.536   4.333
  115MYC    C2922771   2.427   4.375   4.474
  115MYC    H5222772   2.318   4.368   4.468
  115MYC    H5322773   2.470   4.276   4.493
  115MYC    C3022774   2.455   4.447   4.607
  115MYC    H5422775   2.563   4.452   4.625
  115MYC    H5522776   2.423   4.552   4.600
  115MYC    C3122777   2.390   4.375   4.726
  115MYC    H5622778   2.286   4.345   4.707
  115MYC    H5722779   2.452   4.289   4.752
  115MYC    C3222780   2.395   4.466   4.851
  115MYC    H5822781   2.501   4.494   4.857
  115MYC    H5922782   2.335   4.557   4.845
  115MYC    C3322783   2.362   4.396   4.984
  115MYC    H6022784   2.259   4.358   4.985
  115MYC    H6122785   2.434   4.315   4.998
  115MYC    C3422786   2.363   4.492   5.104
  115MYC    H6222787   2.466   4.519   5.128
  115MYC    H6322788   2.310   4.584   5.074
  115MYC    C3522789   2.297   4.434   5.230
  115MYC    H6422790   2.188   4.429   5.217
  115MYC    H6522791   2.340   4.334   5.249
  115MYC    C3622792   2.325   4.523   5.352
  115MYC    H6622793   2.429   4.555   5.368
  115MYC    H6722794   2.255   4.607   5.350
  115MYC    C3722795   2.295   4.439   5.478
  115MYC    H6822796   2.194   4.397   5.483
  115MYC    H6922797   2.370   4.360   5.490
  115MYC    C3822798   2.311   4.527   5.603
  115MYC    H7022799   2.418   4.547   5.616
  115MYC    H7122800   2.258   4.621   5.582
  115MYC    C3922801   2.269   4.463   5.736
  115MYC    H7222802   2.172   4.412   5.737
  115MYC    H7322803   2.330   4.377   5.767
  115MYC    C4022804   2.269   4.565   5.851
  115MYC    H7422805   2.377   4.583   5.858
  115MYC    H7522806   2.212   4.657   5.835
  115MYC    C4122807   2.233   4.496   5.984
  115MYC    H7622808   2.131   4.456   5.977
  115MYC    H7722809   2.303   4.416   6.009
  115MYC    C4222810   2.208   4.594   6.100
  115MYC    H7822811   2.296   4.655   6.120
  115MYC    H7922812   2.126   4.666   6.085
  115MYC    C4322813   2.173   4.509   6.223
  115MYC    H8022814   2.094   4.546   6.290
  115MYC    H8122815   2.257   4.502   6.294
  115MYC    H8222816   2.156   4.404   6.195
  116MYC   5H1522817   2.319   4.977   6.183
  116MYC    C8022818   2.388   4.974   6.097
  116MYC   3H1522819   2.450   5.064   6.096
  116MYC   4H1522820   2.453   4.887   6.108
  116MYC    C7922821   2.308   4.964   5.966
  116MYC   1H1522822   2.240   5.050   5.965
  116MYC   2H1522823   2.242   4.876   5.964
  116MYC    C7822824   2.386   4.969   5.834
  116MYC   9H1422825   2.461   4.888   5.834
  116MYC   0H1522826   2.440   5.064   5.828
  116MYC    C7722827   2.300   4.961   5.706
  116MYC   7H1422828   2.241   5.053   5.695
  116MYC   8H1422829   2.223   4.884   5.713
  116MYC    C7622830   2.380   4.932   5.578
  116MYC   5H1422831   2.434   4.837   5.590
  116MYC   6H1422832   2.462   5.002   5.559
  116MYC    C7522833   2.281   4.926   5.461
  116MYC   3H1422834   2.187   4.982   5.478
  116MYC   4H1422835   2.248   4.822   5.450
  116MYC    C7422836   2.347   4.972   5.330
  116MYC   1H1422837   2.442   4.918   5.323
  116MYC   2H1422838   2.364   5.080   5.335
  116MYC    C7322839   2.253   4.954   5.209
  116MYC   9H1322840   2.183   5.038   5.212
  116MYC   0H1422841   2.195   4.861   5.214
  116MYC    C7222842   2.343   4.960   5.084
  116MYC   7H1322843   2.402   4.867   5.086
  116MYC   8H1322844   2.412   5.044   5.102
  116MYC    C7122845   2.273   4.973   4.948
  116MYC   5H1322846   2.229   5.074   4.950
  116MYC   6H1322847   2.196   4.897   4.938
  116MYC    C7022848   2.373   4.975   4.832
  116MYC   3H1322849   2.431   4.881   4.825
  116MYC   4H1322850   2.450   5.051   4.849
  116MYC    C6922851   2.305   4.999   4.696
  116MYC   1H1322852   2.265   5.100   4.683
  116MYC   2H1322853   2.225   4.924   4.687
  116MYC    C6822854   2.391   4.947   4.579
  116MYC   9H1222855   2.411   4.841   4.599
  116MYC   0H1322856   2.488   4.998   4.573
  116MYC    C6722857   2.323   4.965   4.443
  116MYC   7H1222858   2.295   5.071   4.434
  116MYC   8H1222859   2.232   4.904   4.445
  116MYC    C6622860   2.406   4.922   4.321
  116MYC   5H1222861   2.452   4.823   4.330
  116MYC   6H1222862   2.500   4.979   4.320
  116MYC    C6522863   2.331   4.937   4.187
  116MYC   3H1222864   2.279   5.034   4.182
  116MYC   4H1222865   2.251   4.862   4.184
  116MYC    C6422866   2.423   4.917   4.066
  116MYC   1H1222867   2.437   4.809   4.053
  116MYC   2H1222868   2.525   4.951   4.086
  116MYC    C6322869   2.365   4.972   3.934
  116MYC   9H1122870   2.401   5.074   3.914
  116MYC   0H1222871   2.255   4.978   3.934
  116MYC    C6222872   2.405   4.881   3.817
  116MYC   7H1122873   2.377   4.778   3.843
  116MYC   8H1122874   2.514   4.896   3.809
  116MYC    C6122875   2.341   4.926   3.685
  116MYC   5H1122876   2.359   5.034   3.677
  116MYC   6H1122877   2.232   4.918   3.696
  116MYC    C6022878   2.398   4.849   3.567
  116MYC   4H1122879   2.381   4.742   3.572
  116MYC    C5822880   2.417   4.918   3.434
  116MYC   1H1122881   2.371   5.017   3.428
  116MYC    C5922882   2.536   4.889   3.521
  116MYC   2H1122883   2.598   4.805   3.491
  116MYC   3H1122884   2.584   4.973   3.570
  116MYC    C5722885   2.378   4.835   3.312
  116MYC   9H1022886   2.291   4.772   3.337
  116MYC   0H1122887   2.465   4.769   3.303
  116MYC    C5622888   2.353   4.921   3.187
  116MYC   7H1022889   2.434   4.992   3.168
  116MYC   8H1022890   2.275   4.997   3.201
  116MYC    C5522891   2.340   4.831   3.063
  116MYC   5H1022892   2.242   4.782   3.065
  116MYC   6H1022893   2.416   4.752   3.068
  116MYC    C5422894   2.358   4.914   2.935
  116MYC   3H1022895   2.460   4.953   2.928
  116MYC   4H1022896   2.286   4.997   2.939
  116MYC    C5322897   2.315   4.836   2.809
  116MYC   1H1022898   2.207   4.814   2.813
  116MYC   2H1022899   2.362   4.737   2.808
  116MYC    C5222900   2.344   4.911   2.678
  116MYC    H9922901   2.445   4.953   2.670
  116MYC   0H1022902   2.275   4.997   2.675
  116MYC    C5122903   2.313   4.829   2.552
  116MYC    H9722904   2.206   4.806   2.557
  116MYC    H9822905   2.366   4.733   2.561
  116MYC    C5022906   2.353   4.902   2.423
  116MYC    H9522907   2.454   4.939   2.442
  116MYC    H9622908   2.290   4.990   2.408
  116MYC    C4922909   2.348   4.817   2.295
  116MYC    H9322910   2.245   4.785   2.277
  116MYC    H9422911   2.418   4.734   2.310
  116MYC    C4822912   2.402   4.904   2.180
  116MYC    H9122913   2.474   4.974   2.224
  116MYC    H9222914   2.313   4.959   2.148
  116MYC    C4722915   2.459   4.822   2.063
  116MYC    H8922916   2.391   4.737   2.049
  116MYC    H9022917   2.559   4.790   2.095
  116MYC    C4622918   2.463   4.904   1.932
  116MYC    H8722919   2.518   4.997   1.951
  116MYC    H8822920   2.363   4.930   1.897
  116MYC    C4522921   2.540   4.828   1.823
  116MYC    H8522922   2.476   4.748   1.785
  116MYC    H8622923   2.635   4.790   1.864
  116MYC    C4422924   2.567   4.914   1.699
  116MYC    H8322925   2.621   4.862   1.619
  116MYC    H8422926   2.627   5.006   1.709
  116MYC    C1822927   2.431   4.953   1.640
  116MYC    H3122928   2.354   4.877   1.640
  116MYC    C1722929   2.380   5.094   1.657
  116MYC    H3022930   2.450   5.164   1.704
  116MYC    C1922931   2.427   5.047   1.522
  116MYC    H3222932   2.525   5.080   1.489
  116MYC    H3322933   2.358   5.023   1.442
  116MYC    C1622934   2.234   5.129   1.683
  116MYC    H2822935   2.180   5.039   1.714
  116MYC    H2922936   2.182   5.164   1.594
  116MYC    C1522937   2.213   5.244   1.783
  116MYC    H2622938   2.104   5.253   1.795
  116MYC    H2722939   2.239   5.339   1.734
  116MYC    C1422940   2.281   5.229   1.920
  116MYC    H2422941   2.390   5.222   1.905
  116MYC    H2522942   2.248   5.136   1.966
  116MYC    C1322943   2.255   5.351   2.009
  116MYC    H2222944   2.146   5.366   2.012
  116MYC    H2322945   2.303   5.438   1.962
  116MYC    C1222946   2.304   5.336   2.154
  116MYC    H2022947   2.413   5.336   2.148
  116MYC    H2122948   2.282   5.240   2.203
  116MYC    C1122949   2.253   5.451   2.242
  116MYC    H1822950   2.146   5.435   2.257
  116MYC    H1922951   2.256   5.537   2.174
  116MYC    C1022952   2.335   5.498   2.364
  116MYC    H1622953   2.295   5.593   2.402
  116MYC    H1722954   2.437   5.524   2.333
  116MYC     C922955   2.351   5.387   2.470
  116MYC    H1422956   2.451   5.345   2.460
  116MYC    H1522957   2.280   5.306   2.450
  116MYC     C822958   2.332   5.444   2.611
  116MYC    H1222959   2.234   5.490   2.622
  116MYC    H1322960   2.406   5.524   2.623
  116MYC     C722961   2.358   5.348   2.730
  116MYC    H1022962   2.463   5.317   2.731
  116MYC    H1122963   2.312   5.250   2.713
  116MYC     C622964   2.343   5.417   2.866
  116MYC     H822965   2.252   5.477   2.864
  116MYC     H922966   2.424   5.488   2.888
  116MYC     C522967   2.328   5.326   2.990
  116MYC     H622968   2.428   5.313   3.034
  116MYC     H722969   2.300   5.227   2.950
  116MYC     C422970   2.208   5.352   3.083
  116MYC     H422971   2.198   5.248   3.117
  116MYC     H522972   2.119   5.375   3.024
  116MYC     C222973   2.236   5.435   3.209
  116MYC     H222974   2.223   5.361   3.289
  116MYC     O322975   2.372   5.480   3.207
  116MYC     H322976   2.368   5.568   3.166
  116MYC     C122977   2.145   5.553   3.246
  116MYC     H122978   2.044   5.513   3.262
  116MYC    C8122979   2.138   5.654   3.132
  116MYC    O8222980   2.179   5.768   3.150
  116MYC    O8322981   2.034   5.633   3.049
  116MYC   6H1522982   2.033   5.719   3.003
  116MYC    C2022983   2.187   5.625   3.376
  116MYC    H3422984   2.292   5.657   3.379
  116MYC    H3522985   2.138   5.722   3.392
  116MYC    C2122986   2.158   5.541   3.502
  116MYC    H3622987   2.053   5.513   3.498
  116MYC    H3722988   2.231   5.459   3.498
  116MYC    C2222989   2.172   5.617   3.635
  116MYC    H3822990   2.276   5.650   3.646
  116MYC    H3922991   2.106   5.703   3.620
  116MYC    C2322992   2.116   5.539   3.755
  116MYC    H4022993   2.015   5.501   3.736
  116MYC    H4122994   2.175   5.448   3.770
  116MYC    C2422995   2.127   5.627   3.881
  116MYC    H4222996   2.231   5.654   3.905
  116MYC    H4322997   2.082   5.724   3.858
  116MYC    C2522998   2.064   5.567   4.008
  116MYC    H4422999   1.958   5.547   3.990
  116MYC    H4523000   2.111   5.470   4.029
  116MYC    C2623001   2.075   5.659   4.131
  116MYC    H4623002   2.174   5.705   4.119
  116MYC    H4723003   2.002   5.741   4.131
  116MYC    C2723004   2.061   5.592   4.269
  116MYC    H4823005   1.955   5.582   4.297
  116MYC    H4923006   2.101   5.491   4.259
  116MYC    C2823007   2.129   5.655   4.391
  116MYC    H5023008   2.236   5.674   4.373
  116MYC    H5123009   2.083   5.755   4.395
  116MYC    C2923010   2.110   5.583   4.525
  116MYC    H5223011   2.001   5.573   4.537
  116MYC    H5323012   2.148   5.480   4.520
  116MYC    C3023013   2.162   5.655   4.651
  116MYC    H5423014   2.261   5.697   4.629
  116MYC    H5523015   2.103   5.746   4.670
  116MYC    C3123016   2.154   5.560   4.771
  116MYC    H5623017   2.049   5.532   4.783
  116MYC    H5723018   2.216   5.475   4.739
  116MYC    C3223019   2.201   5.630   4.900
  116MYC    H5823020   2.303   5.667   4.885
  116MYC    H5923021   2.136   5.717   4.912
  116MYC    C3323022   2.183   5.549   5.030
  116MYC    H6023023   2.076   5.526   5.039
  116MYC    H6123024   2.235   5.453   5.025
  116MYC    C3423025   2.228   5.632   5.151
  116MYC    H6223026   2.301   5.706   5.117
  116MYC    H6323027   2.144   5.698   5.177
  116MYC    C3523028   2.251   5.549   5.278
  116MYC    H6423029   2.215   5.446   5.264
  116MYC    H6523030   2.360   5.537   5.283
  116MYC    C3623031   2.192   5.617   5.403
  116MYC    H6623032   2.221   5.722   5.388
  116MYC    H6723033   2.083   5.606   5.411
  116MYC    C3723034   2.254   5.559   5.531
  116MYC    H6823035   2.261   5.449   5.536
  116MYC    H6923036   2.361   5.582   5.532
  116MYC    C3823037   2.180   5.586   5.663
  116MYC    H7023038   2.160   5.694   5.672
  116MYC    H7123039   2.079   5.542   5.667
  116MYC    C3923040   2.266   5.540   5.782
  116MYC    H7223041   2.295   5.435   5.768
  116MYC    H7323042   2.361   5.594   5.775
  116MYC    C4023043   2.204   5.563   5.921
  116MYC    H7423044   2.205   5.669   5.952
  116MYC    H7523045   2.102   5.525   5.925
  116MYC    C4123046   2.278   5.487   6.032
  116MYC    H7623047   2.291   5.378   6.020
  116MYC    H7723048   2.381   5.522   6.039
  116MYC    C4223049   2.209   5.521   6.165
  116MYC    H7823050   2.195   5.629   6.170
  116MYC    H7923051   2.112   5.469   6.174
  116MYC    C4323052   2.299   5.475   6.282
  116MYC    H8023053   2.237   5.487   6.372
  116MYC    H8123054   2.389   5.536   6.295
  116MYC    H8223055   2.320   5.369   6.268
  117MYC   5H1523056   2.810   6.111   6.192
  117MYC    C8023057   2.741   6.099   6.108
  117MYC   3H1523058   2.754   5.994   6.078
  117MYC   4H1523059   2.639   6.101   6.148
  117MYC    C7923060   2.766   6.192   5.989
  117MYC   1H1523061   2.874   6.211   5.982
  117MYC   2H1523062   2.703   6.280   6.009
  117MYC    C7823063   2.718   6.122   5.861
  117MYC   9H1423064   2.612   6.092   5.865
  117MYC   0H1523065   2.766   6.023   5.856
  117MYC    C7723066   2.742   6.199   5.730
  117MYC   7H1423067   2.850   6.208   5.714
  117MYC   8H1423068   2.693   6.297   5.732
  117MYC    C7623069   2.685   6.113   5.616
  117MYC   5H1423070   2.576   6.103   5.632
  117MYC   6H1423071   2.731   6.013   5.611
  117MYC    C7523072   2.712   6.186   5.484
  117MYC   3H1423073   2.818   6.198   5.458
  117MYC   4H1423074   2.682   6.292   5.494
  117MYC    C7423075   2.645   6.111   5.368
  117MYC   1H1423076   2.537   6.096   5.382
  117MYC   2H1423077   2.684   6.009   5.373
  117MYC    C7323078   2.681   6.166   5.229
  117MYC   9H1323079   2.787   6.146   5.211
  117MYC   0H1423080   2.676   6.275   5.240
  117MYC    C7223081   2.577   6.121   5.125
  117MYC   7H1323082   2.491   6.187   5.105
  117MYC   8H1323083   2.534   6.025   5.154
  117MYC    C7123084   2.656   6.088   4.997
  117MYC   5H1323085   2.706   5.992   5.017
  117MYC   6H1323086   2.740   6.158   4.987
  117MYC    C7023087   2.573   6.095   4.868
  117MYC   3H1323088   2.508   6.183   4.864
  117MYC   4H1323089   2.498   6.014   4.870
  117MYC    C6923090   2.655   6.091   4.738
  117MYC   1H1323091   2.709   5.996   4.731
  117MYC   2H1323092   2.728   6.171   4.754
  117MYC    C6823093   2.564   6.110   4.615
  117MYC   9H1223094   2.534   6.214   4.599
  117MYC   0H1323095   2.475   6.046   4.620
  117MYC    C6723096   2.643   6.057   4.494
  117MYC   7H1223097   2.662   5.949   4.499
  117MYC   8H1223098   2.739   6.109   4.493
  117MYC    C6623099   2.580   6.092   4.358
  117MYC   5H1223100   2.552   6.199   4.357
  117MYC   6H1223101   2.482   6.044   4.352
  117MYC    C6523102   2.670   6.061   4.237
  117MYC   3H1223103   2.683   5.952   4.236
  117MYC   4H1223104   2.766   6.114   4.243
  117MYC    C6423105   2.606   6.094   4.101
  117MYC   1H1223106   2.558   6.192   4.106
  117MYC   2H1223107   2.529   6.016   4.087
  117MYC    C6323108   2.704   6.079   3.984
  117MYC   9H1123109   2.743   5.976   3.982
  117MYC   0H1223110   2.794   6.136   4.011
  117MYC    C6223111   2.645   6.124   3.850
  117MYC   7H1123112   2.632   6.233   3.847
  117MYC   8H1123113   2.549   6.072   3.840
  117MYC    C6123114   2.743   6.081   3.739
  117MYC   5H1123115   2.757   5.972   3.736
  117MYC   6H1123116   2.837   6.136   3.751
  117MYC    C6023117   2.694   6.127   3.602
  117MYC   4H1123118   2.701   6.235   3.594
  117MYC    C5823119   2.722   6.036   3.486
  117MYC   1H1123120   2.776   5.943   3.506
  117MYC    C5923121   2.581   6.051   3.536
  117MYC   2H1123122   2.515   6.112   3.474
  117MYC   3H1123123   2.533   5.976   3.598
  117MYC    C5723124   2.770   6.110   3.361
  117MYC   9H1023125   2.873   6.078   3.344
  117MYC   0H1123126   2.786   6.217   3.378
  117MYC    C5623127   2.680   6.083   3.240
  117MYC   7H1023128   2.576   6.118   3.251
  117MYC   8H1023129   2.681   5.974   3.227
  117MYC    C5523130   2.735   6.146   3.111
  117MYC   5H1023131   2.828   6.096   3.082
  117MYC   6H1023132   2.754   6.254   3.121
  117MYC    C5423133   2.634   6.122   2.998
  117MYC   3H1023134   2.544   6.185   3.004
  117MYC   4H1023135   2.603   6.017   2.998
  117MYC    C5323136   2.702   6.142   2.861
  117MYC   1H1023137   2.755   6.047   2.844
  117MYC   2H1023138   2.776   6.221   2.871
  117MYC    C5223139   2.601   6.156   2.746
  117MYC    H9923140   2.544   6.249   2.752
  117MYC   0H1023141   2.532   6.070   2.751
  117MYC    C5123142   2.672   6.156   2.610
  117MYC    H9723143   2.716   6.064   2.570
  117MYC    H9823144   2.761   6.218   2.623
  117MYC    C5023145   2.580   6.224   2.508
  117MYC    H9523146   2.572   6.328   2.541
  117MYC    H9623147   2.478   6.182   2.508
  117MYC    C4923148   2.631   6.212   2.363
  117MYC    H9323149   2.559   6.260   2.295
  117MYC    H9423150   2.636   6.106   2.335
  117MYC    C4823151   2.767   6.281   2.339
  117MYC    H9123152   2.834   6.258   2.422
  117MYC    H9223153   2.753   6.390   2.346
  117MYC    C4723154   2.834   6.225   2.212
  117MYC    H8923155   2.855   6.118   2.213
  117MYC    H9023156   2.933   6.270   2.198
  117MYC    C4623157   2.757   6.262   2.084
  117MYC    H8723158   2.707   6.358   2.100
  117MYC    H8823159   2.671   6.195   2.066
  117MYC    C4523160   2.838   6.266   1.953
  117MYC    H8523161   2.900   6.177   1.942
  117MYC    H8623162   2.910   6.348   1.957
  117MYC    C4423163   2.760   6.279   1.821
  117MYC    H8323164   2.838   6.287   1.743
  117MYC    H8423165   2.691   6.364   1.812
  117MYC    C1823166   2.696   6.149   1.775
  117MYC    H3123167   2.755   6.063   1.806
  117MYC    C1723168   2.549   6.120   1.795
  117MYC    H3023169   2.501   6.203   1.846
  117MYC    C1923170   2.603   6.148   1.657
  117MYC    H3223171   2.587   6.243   1.607
  117MYC    H3323172   2.607   6.063   1.589
  117MYC    C1623173   2.499   5.982   1.835
  117MYC    H2823174   2.565   5.941   1.912
  117MYC    H2923175   2.507   5.908   1.754
  117MYC    C1523176   2.352   5.985   1.880
  117MYC    H2623177   2.306   5.886   1.870
  117MYC    H2723178   2.298   6.057   1.817
  117MYC    C1423179   2.348   6.023   2.029
  117MYC    H2423180   2.417   6.108   2.036
  117MYC    H2523181   2.391   5.940   2.085
  117MYC    C1323182   2.211   6.066   2.084
  117MYC    H2223183   2.134   5.990   2.064
  117MYC    H2323184   2.190   6.155   2.023
  117MYC    C1223185   2.209   6.093   2.236
  117MYC    H2023186   2.282   6.168   2.268
  117MYC    H2123187   2.233   6.004   2.295
  117MYC    C1123188   2.073   6.152   2.278
  117MYC    H1823189   1.985   6.093   2.251
  117MYC    H1923190   2.058   6.241   2.215
  117MYC    C1023191   2.067   6.193   2.426
  117MYC    H1623192   1.979   6.258   2.436
  117MYC    H1723193   2.146   6.262   2.457
  117MYC     C923194   2.048   6.070   2.517
  117MYC    H1423195   2.126   5.993   2.508
  117MYC    H1523196   1.957   6.015   2.491
  117MYC     C823197   2.041   6.109   2.665
  117MYC    H1223198   2.007   6.021   2.722
  117MYC    H1323199   1.957   6.176   2.683
  117MYC     C723200   2.176   6.164   2.716
  117MYC    H1023201   2.177   6.274   2.718
  117MYC    H1123202   2.257   6.132   2.650
  117MYC     C623203   2.208   6.125   2.861
  117MYC     H823204   2.314   6.149   2.875
  117MYC     H923205   2.196   6.016   2.864
  117MYC     C523206   2.129   6.191   2.975
  117MYC     H623207   2.020   6.187   2.966
  117MYC     H723208   2.146   6.299   2.969
  117MYC     C423209   2.182   6.140   3.111
  117MYC     H423210   2.283   6.180   3.123
  117MYC     H523211   2.189   6.031   3.102
  117MYC     C223212   2.104   6.175   3.239
  117MYC     H223213   2.183   6.176   3.315
  117MYC     O323214   2.042   6.303   3.231
  117MYC     H323215   1.987   6.304   3.152
  117MYC     C123216   1.994   6.076   3.280
  117MYC     H123217   2.042   5.978   3.295
  117MYC    C8123218   1.885   6.060   3.174
  117MYC    O8223219   1.776   6.113   3.171
  117MYC    O8323220   1.924   5.977   3.074
  117MYC   6H1523221   1.841   5.973   3.024
  117MYC    C2023222   1.942   6.096   3.423
  117MYC    H3423223   1.891   6.192   3.434
  117MYC    H3523224   1.869   6.015   3.438
  117MYC    C2123225   2.051   6.071   3.529
  117MYC    H3623226   2.093   5.970   3.518
  117MYC    H3723227   2.134   6.141   3.519
  117MYC    C2223228   1.988   6.087   3.669
  117MYC    H3823229   1.921   6.173   3.682
  117MYC    H3923230   1.917   6.007   3.696
  117MYC    C2323231   2.087   6.086   3.786
  117MYC    H4023232   2.128   5.984   3.775
  117MYC    H4123233   2.173   6.151   3.766
  117MYC    C2423234   2.018   6.100   3.923
  117MYC    H4223235   1.960   6.193   3.922
  117MYC    H4323236   1.942   6.020   3.932
  117MYC    C2523237   2.116   6.106   4.040
  117MYC    H4423238   2.186   6.022   4.035
  117MYC    H4523239   2.162   6.206   4.038
  117MYC    C2623240   2.046   6.096   4.177
  117MYC    H4623241   1.985   6.187   4.186
  117MYC    H4723242   1.981   6.008   4.185
  117MYC    C2723243   2.145   6.072   4.292
  117MYC    H4823244   2.201   5.978   4.279
  117MYC    H4923245   2.218   6.154   4.290
  117MYC    C2823246   2.070   6.063   4.425
  117MYC    H5023247   2.004   6.151   4.431
  117MYC    H5123248   2.007   5.974   4.417
  117MYC    C2923249   2.155   6.065   4.553
  117MYC    H5223250   2.212   5.972   4.556
  117MYC    H5323251   2.234   6.141   4.547
  117MYC    C3023252   2.079   6.091   4.685
  117MYC    H5423253   2.061   6.198   4.700
  117MYC    H5523254   1.979   6.047   4.676
  117MYC    C3123255   2.151   6.044   4.813
  117MYC    H5623256   2.160   5.935   4.817
  117MYC    H5723257   2.248   6.094   4.822
  117MYC    C3223258   2.074   6.089   4.938
  117MYC    H5823259   2.077   6.199   4.945
  117MYC    H5923260   1.969   6.059   4.933
  117MYC    C3323261   2.138   6.035   5.067
  117MYC    H6023262   2.145   5.925   5.074
  117MYC    H6123263   2.244   6.061   5.073
  117MYC    C3423264   2.066   6.074   5.197
  117MYC    H6223265   2.039   6.179   5.208
  117MYC    H6323266   1.970   6.021   5.202
  117MYC    C3523267   2.144   6.034   5.323
  117MYC    H6423268   2.160   5.926   5.325
  117MYC    H6523269   2.245   6.078   5.331
  117MYC    C3623270   2.054   6.061   5.445
  117MYC    H6623271   2.028   6.167   5.434
  117MYC    H6723272   1.962   6.001   5.443
  117MYC    C3723273   2.136   6.036   5.573
  117MYC    H6823274   2.140   5.928   5.592
  117MYC    H6923275   2.237   6.076   5.562
  117MYC    C3823276   2.071   6.097   5.699
  117MYC    H7023277   2.072   6.206   5.688
  117MYC    H7123278   1.966   6.067   5.705
  117MYC    C3923279   2.137   6.050   5.830
  117MYC    H7223280   2.112   5.944   5.841
  117MYC    H7323281   2.246   6.059   5.839
  117MYC    C4023282   2.067   6.113   5.952
  117MYC    H7423283   2.056   6.220   5.927
  117MYC    H7523284   1.966   6.072   5.953
  117MYC    C4123285   2.134   6.085   6.087
  117MYC    H7623286   2.167   5.980   6.092
  117MYC    H7723287   2.227   6.141   6.103
  117MYC    C4223288   2.040   6.110   6.206
  117MYC    H7823289   1.978   6.199   6.190
  117MYC    H7923290   1.970   6.026   6.213
  117MYC    C4323291   2.103   6.131   6.344
  117MYC    H8023292   2.089   6.038   6.401
  117MYC    H8123293   2.053   6.209   6.402
  117MYC    H8223294   2.211   6.148   6.329
  118MYC   5H1523295   2.993   0.013   6.288
  118MYC    C8023296   3.000   0.095   6.216
  118MYC   3H1523297   2.932   0.176   6.246
  118MYC   4H1523298   3.102   0.134   6.218
  118MYC    C7923299   2.958   0.034   6.081
  118MYC   1H1523300   2.855   0.005   6.101
  118MYC   2H1523301   3.012  -0.059   6.056
  118MYC    C7823302   2.962   0.131   5.961
  118MYC   9H1423303   3.060   0.178   5.942
  118MYC   0H1523304   2.898   0.215   5.992
  118MYC    C7723305   2.902   0.056   5.841
  118MYC   7H1423306   2.794   0.070   5.831
  118MYC   8H1423307   2.915  -0.052   5.850
  118MYC    C7623308   2.975   0.094   5.711
  118MYC   5H1423309   3.062   0.028   5.713
  118MYC   6H1423310   3.009   0.198   5.706
  118MYC    C7523311   2.901   0.055   5.582
  118MYC   3H1423312   2.802   0.103   5.588
  118MYC   4H1423313   2.886  -0.053   5.578
  118MYC    C7423314   2.973   0.101   5.454
  118MYC   1H1423315   3.079   0.072   5.459
  118MYC   2H1423316   2.971   0.210   5.446
  118MYC    C7323317   2.905   0.043   5.329
  118MYC   9H1323318   2.796   0.043   5.338
  118MYC   0H1423319   2.933  -0.063   5.323
  118MYC    C7223320   2.939   0.117   5.198
  118MYC   7H1323321   3.045   0.109   5.171
  118MYC   8H1323322   2.919   0.223   5.220
  118MYC    C7123323   2.849   0.072   5.082
  118MYC   5H1323324   2.756   0.129   5.081
  118MYC   6H1323325   2.832  -0.036   5.090
  118MYC    C7023326   2.923   0.087   4.947
  118MYC   3H1323327   3.006   0.017   4.937
  118MYC   4H1323328   2.970   0.186   4.952
  118MYC    C6923329   2.841   0.084   4.817
  118MYC   1H1323330   2.800   0.185   4.802
  118MYC   2H1323331   2.755   0.017   4.833
  118MYC    C6823332   2.914   0.047   4.688
  118MYC   9H1223333   2.940  -0.060   4.695
  118MYC   0H1323334   3.004   0.109   4.673
  118MYC    C6723335   2.829   0.065   4.561
  118MYC   7H1223336   2.784   0.164   4.551
  118MYC   8H1223337   2.742  -0.002   4.559
  118MYC    C6623338   2.906   0.019   4.437
  118MYC   5H1223339   2.915  -0.090   4.429
  118MYC   6H1223340   3.008   0.059   4.446
  118MYC    C6523341   2.857   0.079   4.304
  118MYC   3H1223342   2.875   0.187   4.312
  118MYC   4H1223343   2.750   0.054   4.298
  118MYC    C6423344   2.925   0.023   4.177
  118MYC   1H1223345   2.914  -0.085   4.165
  118MYC   2H1223346   3.034   0.032   4.185
  118MYC    C6323347   2.867   0.094   4.054
  118MYC   9H1123348   2.902   0.198   4.061
  118MYC   0H1223349   2.759   0.108   4.066
  118MYC    C6223350   2.900   0.024   3.922
  118MYC   7H1123351   2.877  -0.083   3.926
  118MYC   8H1123352   3.009   0.023   3.908
  118MYC    C6123353   2.842   0.095   3.799
  118MYC   5H1123354   2.856   0.204   3.805
  118MYC   6H1123355   2.733   0.081   3.804
  118MYC    C6023356   2.889   0.038   3.666
  118MYC   4H1123357   2.873  -0.069   3.653
  118MYC    C5823358   2.906   0.125   3.544
  118MYC   1H1123359   2.870   0.226   3.558
  118MYC    C5923360   3.027   0.075   3.619
  118MYC   2H1123361   3.086  -0.004   3.572
  118MYC   3H1123362   3.084   0.145   3.680
  118MYC    C5723363   2.887   0.082   3.399
  118MYC   9H1023364   2.778   0.084   3.386
  118MYC   0H1123365   2.918  -0.023   3.391
  118MYC    C5623366   2.955   0.170   3.293
  118MYC   7H1023367   3.064   0.158   3.300
  118MYC   8H1023368   2.928   0.274   3.316
  118MYC    C5523369   2.909   0.133   3.151
  118MYC   5H1023370   2.800   0.144   3.142
  118MYC   6H1023371   2.943   0.029   3.142
  118MYC    C5423372   2.982   0.202   3.035
  118MYC   3H1023373   3.088   0.173   3.030
  118MYC   4H1023374   2.978   0.310   3.053
  118MYC    C5323375   2.915   0.165   2.902
  118MYC   1H1023376   2.820   0.218   2.895
  118MYC   2H1023377   2.884   0.060   2.903
  118MYC    C5223378   3.004   0.201   2.781
  118MYC    H9923379   3.103   0.160   2.805
  118MYC   0H1023380   3.007   0.310   2.766
  118MYC    C5123381   2.957   0.134   2.651
  118MYC    H9723382   2.848   0.141   2.648
  118MYC    H9823383   2.969   0.025   2.660
  118MYC    C5023384   3.024   0.186   2.523
  118MYC    H9523385   3.125   0.143   2.523
  118MYC    H9623386   3.026   0.296   2.515
  118MYC    C4923387   2.947   0.137   2.399
  118MYC    H9323388   2.849   0.186   2.392
  118MYC    H9423389   2.928   0.030   2.416
  118MYC    C4823390   3.028   0.171   2.272
  118MYC    H9123391   3.124   0.118   2.274
  118MYC    H9223392   3.051   0.278   2.263
  118MYC    C4723393   2.953   0.139   2.142
  118MYC    H8923394   2.847   0.167   2.147
  118MYC    H9023395   2.955   0.030   2.143
  118MYC    C4623396   3.013   0.193   2.010
  118MYC    H8723397   3.098   0.135   1.973
  118MYC    H8823398   3.060   0.287   2.040
  118MYC    C4523399   2.906   0.208   1.901
  118MYC    H8523400   2.845   0.297   1.922
  118MYC    H8623401   2.841   0.120   1.903
  118MYC    C4423402   2.945   0.206   1.752
  118MYC    H8323403   2.858   0.183   1.689
  118MYC    H8423404   3.014   0.124   1.732
  118MYC    C1823405   2.998   0.340   1.703
  118MYC    H3123406   2.995   0.424   1.772
  118MYC    C1723407   3.124   0.328   1.621
  118MYC    H3023408   3.163   0.230   1.596
  118MYC    C1923409   2.996   0.378   1.557
  118MYC    H3223410   2.943   0.314   1.488
  118MYC    H3323411   2.982   0.484   1.539
  118MYC    C1623412   3.234   0.427   1.654
  118MYC    H2823413   3.196   0.518   1.702
  118MYC    H2923414   3.274   0.460   1.558
  118MYC    C1523415   3.359   0.370   1.723
  118MYC    H2623416   3.447   0.435   1.716
  118MYC    H2723417   3.400   0.280   1.676
  118MYC    C1423418   3.346   0.324   1.869
  118MYC    H2423419   3.312   0.220   1.861
  118MYC    H2523420   3.259   0.377   1.911
  118MYC    C1323421   3.471   0.334   1.958
  118MYC    H2223422   3.519   0.432   1.972
  118MYC    H2323423   3.547   0.281   1.899
  118MYC    C1223424   3.437   0.276   2.096
  118MYC    H2023425   3.374   0.187   2.083
  118MYC    H2123426   3.380   0.352   2.150
  118MYC    C1123427   3.554   0.235   2.187
  118MYC    H1823428   3.648   0.291   2.175
  118MYC    H1923429   3.578   0.131   2.165
  118MYC    C1023430   3.518   0.244   2.336
  118MYC    H1623431   3.577   0.173   2.395
  118MYC    H1723432   3.412   0.219   2.348
  118MYC     C923433   3.548   0.386   2.387
  118MYC    H1423434   3.473   0.455   2.345
  118MYC    H1523435   3.644   0.410   2.340
  118MYC     C823436   3.550   0.390   2.540
  118MYC    H1223437   3.625   0.460   2.578
  118MYC    H1323438   3.586   0.292   2.574
  118MYC     C723439   3.415   0.413   2.610
  118MYC    H1023440   3.357   0.320   2.602
  118MYC    H1123441   3.360   0.490   2.554
  118MYC     C623442   3.430   0.452   2.759
  118MYC     H823443   3.466   0.555   2.760
  118MYC     H923444   3.505   0.383   2.799
  118MYC     C523445   3.294   0.445   2.831
  118MYC     H623446   3.238   0.352   2.818
  118MYC     H723447   3.231   0.519   2.781
  118MYC     C423448   3.303   0.483   2.979
  118MYC     H423449   3.208   0.528   3.012
  118MYC     H523450   3.370   0.571   2.981
  118MYC     C223451   3.336   0.369   3.077
  118MYC     H223452   3.247   0.304   3.074
  118MYC     O323453   3.446   0.295   3.025
  118MYC     H323454   3.520   0.307   3.087
  118MYC     C123455   3.358   0.428   3.218
  118MYC     H123456   3.272   0.490   3.247
  118MYC    C8123457   3.482   0.516   3.223
  118MYC    O8223458   3.473   0.632   3.259
  118MYC    O8323459   3.602   0.455   3.219
  118MYC   6H1523460   3.666   0.528   3.227
  118MYC    C2023461   3.365   0.309   3.315
  118MYC    H3423462   3.277   0.245   3.299
  118MYC    H3523463   3.453   0.244   3.307
  118MYC    C2123464   3.362   0.351   3.463
  118MYC    H3623465   3.445   0.420   3.480
  118MYC    H3723466   3.270   0.403   3.491
  118MYC    C2223467   3.376   0.233   3.561
  118MYC    H3823468   3.301   0.160   3.528
  118MYC    H3923469   3.476   0.189   3.552
  118MYC    C2323470   3.348   0.265   3.709
  118MYC    H4023471   3.391   0.363   3.735
  118MYC    H4123472   3.241   0.289   3.712
  118MYC    C2423473   3.382   0.157   3.813
  118MYC    H4223474   3.326   0.064   3.807
  118MYC    H4323475   3.491   0.147   3.810
  118MYC    C2523476   3.341   0.212   3.951
  118MYC    H4423477   3.367   0.318   3.966
  118MYC    H4523478   3.231   0.206   3.958
  118MYC    C2623479   3.410   0.142   4.069
  118MYC    H4623480   3.421   0.034   4.052
  118MYC    H4723481   3.513   0.180   4.067
  118MYC    C2723482   3.342   0.178   4.202
  118MYC    H4823483   3.303   0.281   4.198
  118MYC    H4923484   3.256   0.109   4.200
  118MYC    C2823485   3.429   0.169   4.328
  118MYC    H5023486   3.464   0.065   4.331
  118MYC    H5123487   3.518   0.232   4.317
  118MYC    C2923488   3.353   0.200   4.458
  118MYC    H5223489   3.336   0.308   4.466
  118MYC    H5323490   3.251   0.158   4.454
  118MYC    C3023491   3.423   0.161   4.590
  118MYC    H5423492   3.447   0.054   4.589
  118MYC    H5523493   3.520   0.211   4.591
  118MYC    C3123494   3.325   0.190   4.705
  118MYC    H5623495   3.269   0.284   4.690
  118MYC    H5723496   3.245   0.115   4.715
  118MYC    C3223497   3.396   0.205   4.840
  118MYC    H5823498   3.450   0.113   4.866
  118MYC    H5923499   3.476   0.279   4.829
  118MYC    C3323500   3.305   0.252   4.955
  118MYC    H6023501   3.265   0.350   4.927
  118MYC    H6123502   3.219   0.185   4.960
  118MYC    C3423503   3.375   0.269   5.091
  118MYC    H6223504   3.406   0.169   5.125
  118MYC    H6323505   3.470   0.323   5.086
  118MYC    C3523506   3.289   0.348   5.191
  118MYC    H6423507   3.263   0.439   5.136
  118MYC    H6523508   3.199   0.290   5.212
  118MYC    C3623509   3.356   0.387   5.324
  118MYC    H6623510   3.408   0.299   5.361
  118MYC    H6723511   3.433   0.464   5.312
  118MYC    C3723512   3.261   0.452   5.427
  118MYC    H6823513   3.204   0.531   5.377
  118MYC    H6923514   3.186   0.379   5.459
  118MYC    C3823515   3.332   0.486   5.559
  118MYC    H7023516   3.406   0.408   5.581
  118MYC    H7123517   3.388   0.578   5.543
  118MYC    C3923518   3.239   0.501   5.680
  118MYC    H7223519   3.171   0.586   5.663
  118MYC    H7323520   3.173   0.414   5.692
  118MYC    C4023521   3.313   0.519   5.813
  118MYC    H7423522   3.376   0.430   5.826
  118MYC    H7523523   3.376   0.609   5.814
  118MYC    C4123524   3.216   0.540   5.931
  118MYC    H7623525   3.170   0.639   5.923
  118MYC    H7723526   3.140   0.462   5.921
  118MYC    C4223527   3.285   0.544   6.069
  118MYC    H7823528   3.339   0.448   6.066
  118MYC    H7923529   3.367   0.616   6.080
  118MYC    C4323530   3.192   0.571   6.189
  118MYC    H8023531   3.241   0.635   6.263
  118MYC    H8123532   3.141   0.483   6.232
  118MYC    H8223533   3.104   0.631   6.163
  119MYC   5H1523534   3.370   0.873   6.220
  119MYC    C8023535   3.358   0.965   6.161
  119MYC   3H1523536   3.264   1.007   6.199
  119MYC   4H1523537   3.442   1.035   6.162
  119MYC    C7923538   3.353   0.907   6.018
  119MYC   1H1523539   3.278   0.827   6.020
  119MYC   2H1523540   3.451   0.861   6.000
  119MYC    C7823541   3.321   1.010   5.909
  119MYC   9H1423542   3.370   1.108   5.919
  119MYC   0H1523543   3.213   1.027   5.918
  119MYC    C7723544   3.355   0.955   5.770
  119MYC   7H1423545   3.323   0.850   5.760
  119MYC   8H1423546   3.464   0.955   5.757
  119MYC    C7623547   3.286   1.032   5.657
  119MYC   5H1423548   3.316   1.137   5.663
  119MYC   6H1423549   3.181   1.034   5.688
  119MYC    C7523550   3.314   0.979   5.515
  119MYC   3H1423551   3.301   0.871   5.526
  119MYC   4H1423552   3.418   1.004   5.489
  119MYC    C7423553   3.220   1.035   5.407
  119MYC   1H1423554   3.240   1.142   5.395
  119MYC   2H1423555   3.117   1.009   5.433
  119MYC    C7323556   3.238   0.961   5.273
  119MYC   9H1323557   3.222   0.854   5.294
  119MYC   0H1423558   3.341   0.969   5.237
  119MYC    C7223559   3.128   1.003   5.173
  119MYC   7H1323560   3.137   1.110   5.151
  119MYC   8H1323561   3.030   0.982   5.218
  119MYC    C7123562   3.148   0.927   5.041
  119MYC   5H1323563   3.114   0.823   5.050
  119MYC   6H1323564   3.255   0.917   5.019
  119MYC    C7023565   3.073   0.992   4.923
  119MYC   3H1323566   3.121   1.090   4.913
  119MYC   4H1323567   2.965   0.999   4.937
  119MYC    C6923568   3.109   0.919   4.793
  119MYC   1H1323569   3.083   0.813   4.796
  119MYC   2H1323570   3.218   0.928   4.779
  119MYC    C6823571   3.043   0.971   4.664
  119MYC   9H1223572   3.047   1.081   4.665
  119MYC   0H1323573   2.938   0.938   4.662
  119MYC    C6723574   3.119   0.911   4.544
  119MYC   7H1223575   3.108   0.802   4.540
  119MYC   8H1223576   3.223   0.937   4.564
  119MYC    C6623577   3.066   0.961   4.408
  119MYC   5H1223578   3.059   1.071   4.407
  119MYC   6H1223579   2.964   0.927   4.388
  119MYC    C6523580   3.158   0.915   4.294
  119MYC   3H1223581   3.186   0.809   4.301
  119MYC   4H1223582   3.249   0.977   4.299
  119MYC    C6423583   3.089   0.945   4.160
  119MYC   1H1223584   3.073   1.052   4.146
  119MYC   2H1223585   2.994   0.890   4.157
  119MYC    C6323586   3.182   0.897   4.047
  119MYC   9H1123587   3.212   0.792   4.062
  119MYC   0H1223588   3.276   0.954   4.043
  119MYC    C6223589   3.106   0.913   3.914
  119MYC   7H1123590   3.086   1.020   3.902
  119MYC   8H1123591   3.008   0.865   3.929
  119MYC    C6123592   3.178   0.856   3.790
  119MYC   5H1123593   3.153   0.752   3.767
  119MYC   6H1123594   3.286   0.850   3.807
  119MYC    C6023595   3.149   0.933   3.662
  119MYC   4H1123596   3.199   1.029   3.663
  119MYC    C5823597   3.150   0.858   3.532
  119MYC   1H1123598   3.148   0.749   3.532
  119MYC    C5923599   3.022   0.922   3.580
  119MYC   2H1123600   2.995   1.011   3.525
  119MYC   3H1123601   2.943   0.854   3.610
  119MYC    C5723602   3.245   0.909   3.424
  119MYC   9H1023603   3.346   0.873   3.442
  119MYC   0H1123604   3.237   1.019   3.422
  119MYC    C5623605   3.194   0.853   3.290
  119MYC   7H1023606   3.089   0.881   3.275
  119MYC   8H1023607   3.186   0.744   3.296
  119MYC    C5523608   3.274   0.899   3.167
  119MYC   5H1023609   3.374   0.854   3.165
  119MYC   6H1023610   3.287   1.008   3.160
  119MYC    C5423611   3.212   0.859   3.032
  119MYC   3H1023612   3.114   0.907   3.023
  119MYC   4H1023613   3.184   0.753   3.037
  119MYC    C5323614   3.305   0.892   2.913
  119MYC   1H1023615   3.385   0.818   2.919
  119MYC   2H1023616   3.359   0.985   2.931
  119MYC    C5223617   3.241   0.895   2.774
  119MYC    H9923618   3.181   0.987   2.766
  119MYC   0H1023619   3.175   0.808   2.777
  119MYC    C5123620   3.334   0.882   2.652
  119MYC    H9723621   3.375   0.780   2.644
  119MYC    H9823622   3.415   0.955   2.656
  119MYC    C5023623   3.261   0.916   2.521
  119MYC    H9523624   3.272   1.024   2.506
  119MYC    H9623625   3.159   0.875   2.533
  119MYC    C4923626   3.330   0.851   2.399
  119MYC    H9323627   3.304   0.746   2.414
  119MYC    H9423628   3.439   0.860   2.407
  119MYC    C4823629   3.294   0.908   2.261
  119MYC    H9123630   3.320   1.014   2.250
  119MYC    H9223631   3.185   0.911   2.249
  119MYC    C4723632   3.348   0.826   2.143
  119MYC    H8923633   3.281   0.739   2.141
  119MYC    H9023634   3.447   0.785   2.167
  119MYC    C4623635   3.362   0.893   2.005
  119MYC    H8723636   3.454   0.951   1.992
  119MYC    H8823637   3.275   0.958   1.992
  119MYC    C4523638   3.360   0.793   1.888
  119MYC    H8523639   3.260   0.749   1.874
  119MYC    H8623640   3.419   0.703   1.912
  119MYC    C4423641   3.412   0.845   1.753
  119MYC    H8323642   3.410   0.757   1.688
  119MYC    H8423643   3.517   0.874   1.766
  119MYC    C1823644   3.328   0.960   1.699
  119MYC    H3123645   3.226   0.921   1.692
  119MYC    C1723646   3.345   1.108   1.720
  119MYC    H3023647   3.430   1.139   1.780
  119MYC    C1923648   3.380   1.046   1.587
  119MYC    H3223649   3.487   1.042   1.565
  119MYC    H3323650   3.310   1.070   1.508
  119MYC    C1623651   3.223   1.196   1.742
  119MYC    H2823652   3.133   1.132   1.739
  119MYC    H2923653   3.215   1.273   1.664
  119MYC    C1523654   3.225   1.279   1.871
  119MYC    H2623655   3.254   1.385   1.861
  119MYC    H2723656   3.302   1.234   1.934
  119MYC    C1423657   3.091   1.259   1.944
  119MYC    H2423658   3.066   1.152   1.955
  119MYC    H2523659   3.006   1.311   1.900
  119MYC    C1323660   3.088   1.320   2.085
  119MYC    H2223661   3.075   1.427   2.067
  119MYC    H2323662   3.178   1.315   2.147
  119MYC    C1223663   2.965   1.260   2.156
  119MYC    H2023664   2.994   1.158   2.184
  119MYC    H2123665   2.882   1.255   2.084
  119MYC    C1123666   2.915   1.343   2.275
  119MYC    H1823667   2.812   1.309   2.294
  119MYC    H1923668   2.904   1.450   2.251
  119MYC    C1023669   2.993   1.321   2.406
  119MYC    H1623670   3.102   1.325   2.396
  119MYC    H1723671   2.971   1.215   2.422
  119MYC     C923672   2.949   1.399   2.531
  119MYC    H1423673   2.847   1.374   2.562
  119MYC    H1523674   2.949   1.507   2.510
  119MYC     C823675   3.041   1.368   2.650
  119MYC    H1223676   3.139   1.415   2.635
  119MYC    H1323677   3.051   1.260   2.663
  119MYC     C723678   2.972   1.422   2.777
  119MYC    H1023679   2.869   1.386   2.790
  119MYC    H1123680   2.963   1.531   2.777
  119MYC     C623681   3.062   1.389   2.897
  119MYC     H823682   3.152   1.451   2.896
  119MYC     H923683   3.100   1.286   2.894
  119MYC     C523684   2.992   1.405   3.034
  119MYC     H623685   3.075   1.385   3.103
  119MYC     H723686   2.924   1.321   3.048
  119MYC     C423687   2.926   1.541   3.060
  119MYC     H423688   2.826   1.536   3.015
  119MYC     H523689   2.984   1.618   3.007
  119MYC     C223690   2.911   1.573   3.210
  119MYC     H223691   2.881   1.478   3.255
  119MYC     O323692   3.042   1.588   3.262
  119MYC     H323693   3.098   1.594   3.182
  119MYC     C123694   2.821   1.692   3.248
  119MYC     H123695   2.720   1.662   3.218
  119MYC    C8123696   2.867   1.821   3.182
  119MYC    O8223697   2.982   1.838   3.144
  119MYC    O8323698   2.766   1.904   3.149
  119MYC   6H1523699   2.803   1.961   3.079
  119MYC    C2023700   2.823   1.710   3.401
  119MYC    H3423701   2.915   1.761   3.433
  119MYC    H3523702   2.744   1.783   3.427
  119MYC    C2123703   2.792   1.586   3.486
  119MYC    H3623704   2.689   1.551   3.466
  119MYC    H3723705   2.861   1.503   3.466
  119MYC    C2223706   2.796   1.623   3.635
  119MYC    H3823707   2.880   1.692   3.650
  119MYC    H3923708   2.704   1.672   3.667
  119MYC    C2323709   2.817   1.505   3.731
  119MYC    H4023710   2.723   1.448   3.740
  119MYC    H4123711   2.902   1.441   3.705
  119MYC    C2423712   2.855   1.560   3.870
  119MYC    H4223713   2.948   1.619   3.866
  119MYC    H4323714   2.775   1.630   3.897
  119MYC    C2523715   2.882   1.448   3.971
  119MYC    H4423716   2.827   1.354   3.953
  119MYC    H4523717   2.985   1.410   3.968
  119MYC    C2623718   2.850   1.496   4.113
  119MYC    H4623719   2.921   1.576   4.135
  119MYC    H4723720   2.752   1.545   4.117
  119MYC    C2723721   2.862   1.391   4.226
  119MYC    H4823722   2.792   1.308   4.213
  119MYC    H4923723   2.965   1.355   4.235
  119MYC    C2823724   2.832   1.452   4.364
  119MYC    H5023725   2.853   1.560   4.372
  119MYC    H5123726   2.728   1.423   4.383
  119MYC    C2923727   2.908   1.388   4.481
  119MYC    H5223728   2.911   1.278   4.483
  119MYC    H5323729   3.017   1.399   4.470
  119MYC    C3023730   2.864   1.440   4.619
  119MYC    H5423731   2.910   1.539   4.618
  119MYC    H5523732   2.755   1.449   4.618
  119MYC    C3123733   2.922   1.368   4.742
  119MYC    H5623734   2.900   1.261   4.735
  119MYC    H5723735   3.031   1.355   4.737
  119MYC    C3223736   2.886   1.421   4.882
  119MYC    H5823737   2.931   1.521   4.889
  119MYC    H5923738   2.777   1.436   4.886
  119MYC    C3323739   2.925   1.338   5.006
  119MYC    H6023740   2.890   1.234   5.001
  119MYC    H6123741   3.034   1.334   5.003
  119MYC    C3423742   2.885   1.407   5.137
  119MYC    H6223743   2.926   1.508   5.145
  119MYC    H6323744   2.776   1.421   5.144
  119MYC    C3523745   2.937   1.322   5.254
  119MYC    H6423746   2.919   1.217   5.227
  119MYC    H6523747   3.046   1.330   5.259
  119MYC    C3623748   2.880   1.364   5.391
  119MYC    H6623749   2.872   1.473   5.389
  119MYC    H6723750   2.781   1.324   5.417
  119MYC    C3723751   2.958   1.312   5.513
  119MYC    H6823752   2.972   1.204   5.519
  119MYC    H6923753   3.060   1.353   5.508
  119MYC    C3823754   2.916   1.375   5.647
  119MYC    H7023755   2.880   1.478   5.637
  119MYC    H7123756   2.843   1.309   5.695
  119MYC    C3923757   3.034   1.383   5.746
  119MYC    H7223758   3.106   1.305   5.721
  119MYC    H7323759   3.074   1.484   5.732
  119MYC    C4023760   2.978   1.377   5.889
  119MYC    H7423761   2.910   1.454   5.928
  119MYC    H7523762   2.909   1.293   5.901
  119MYC    C4123763   3.090   1.373   5.995
  119MYC    H7623764   3.159   1.289   5.978
  119MYC    H7723765   3.155   1.461   5.987
  119MYC    C4223766   3.034   1.385   6.138
  119MYC    H7823767   3.001   1.489   6.150
  119MYC    H7923768   2.943   1.327   6.151
  119MYC    C4323769   3.138   1.337   6.240
  119MYC    H8023770   3.107   1.350   6.344
  119MYC    H8123771   3.231   1.393   6.225
  119MYC    H8223772   3.164   1.231   6.223
  120MYC   5H1523773   3.460   2.251   6.262
  120MYC    C8023774   3.420   2.177   6.192
  120MYC   3H1523775   3.409   2.077   6.234
  120MYC   4H1523776   3.325   2.215   6.150
  120MYC    C7923777   3.512   2.152   6.072
  120MYC   1H1523778   3.609   2.112   6.103
  120MYC   2H1523779   3.551   2.245   6.029
  120MYC    C7823780   3.457   2.069   5.954
  120MYC   9H1423781   3.370   2.127   5.920
  120MYC   0H1523782   3.417   1.979   6.002
  120MYC    C7723783   3.551   2.050   5.834
  120MYC   7H1423784   3.626   1.974   5.859
  120MYC   8H1423785   3.607   2.141   5.810
  120MYC    C7623786   3.485   2.017   5.699
  120MYC   5H1423787   3.412   2.097   5.683
  120MYC   6H1423788   3.431   1.921   5.700
  120MYC    C7523789   3.589   2.003   5.587
  120MYC   3H1423790   3.662   1.929   5.621
  120MYC   4H1423791   3.644   2.097   5.585
  120MYC    C7423792   3.532   1.974   5.447
  120MYC   1H1423793   3.456   2.052   5.439
  120MYC   2H1423794   3.484   1.876   5.453
  120MYC    C7323795   3.634   1.981   5.332
  120MYC   9H1323796   3.718   1.911   5.345
  120MYC   0H1423797   3.679   2.080   5.336
  120MYC    C7223798   3.569   1.967   5.193
  120MYC   7H1323799   3.501   2.050   5.170
  120MYC   8H1323800   3.509   1.876   5.185
  120MYC    C7123801   3.674   1.975   5.080
  120MYC   5H1323802   3.715   1.874   5.069
  120MYC   6H1323803   3.764   2.031   5.107
  120MYC    C7023804   3.614   2.023   4.947
  120MYC   3H1323805   3.584   2.128   4.958
  120MYC   4H1323806   3.524   1.966   4.921
  120MYC    C6923807   3.714   1.998   4.833
  120MYC   1H1323808   3.732   1.891   4.819
  120MYC   2H1323809   3.813   2.037   4.859
  120MYC    C6823810   3.669   2.071   4.705
  120MYC   9H1223811   3.705   2.174   4.716
  120MYC   0H1323812   3.559   2.074   4.701
  120MYC    C6723813   3.727   2.016   4.574
  120MYC   7H1223814   3.673   1.923   4.556
  120MYC   8H1223815   3.829   1.982   4.593
  120MYC    C6623816   3.718   2.108   4.451
  120MYC   5H1223817   3.765   2.207   4.460
  120MYC   6H1223818   3.612   2.123   4.430
  120MYC    C6523819   3.768   2.051   4.317
  120MYC   3H1223820   3.736   1.947   4.310
  120MYC   4H1223821   3.878   2.048   4.320
  120MYC    C6423822   3.723   2.136   4.196
  120MYC   1H1223823   3.743   2.243   4.210
  120MYC   2H1223824   3.616   2.122   4.180
  120MYC    C6323825   3.795   2.077   4.073
  120MYC   9H1123826   3.773   1.970   4.069
  120MYC   0H1223827   3.903   2.098   4.083
  120MYC    C6223828   3.752   2.134   3.937
  120MYC   7H1123829   3.810   2.224   3.911
  120MYC   8H1123830   3.644   2.155   3.938
  120MYC    C6123831   3.782   2.032   3.826
  120MYC   5H1123832   3.724   1.941   3.841
  120MYC   6H1123833   3.890   2.012   3.830
  120MYC    C6023834   3.756   2.090   3.688
  120MYC   4H1123835   3.833   2.157   3.651
  120MYC    C5823836   3.702   2.000   3.579
  120MYC   1H1123837   3.674   1.898   3.606
  120MYC    C5923838   3.617   2.112   3.633
  120MYC   2H1123839   3.600   2.204   3.579
  120MYC   3H1123840   3.539   2.083   3.703
  120MYC    C5723841   3.753   2.012   3.436
  120MYC   9H1023842   3.835   1.940   3.423
  120MYC   0H1123843   3.802   2.109   3.418
  120MYC    C5623844   3.640   1.987   3.336
  120MYC   7H1023845   3.586   2.082   3.319
  120MYC   8H1023846   3.575   1.907   3.375
  120MYC    C5523847   3.694   1.942   3.200
  120MYC   5H1023848   3.721   1.836   3.210
  120MYC   6H1023849   3.787   1.995   3.176
  120MYC    C5423850   3.597   1.960   3.082
  120MYC   3H1023851   3.555   2.061   3.078
  120MYC   4H1023852   3.504   1.905   3.099
  120MYC    C5323853   3.666   1.908   2.954
  120MYC   1H1023854   3.700   1.806   2.973
  120MYC   2H1023855   3.757   1.969   2.940
  120MYC    C5223856   3.593   1.905   2.819
  120MYC    H9923857   3.523   1.990   2.807
  120MYC   0H1023858   3.528   1.817   2.822
  120MYC    C5123859   3.686   1.887   2.699
  120MYC    H9723860   3.725   1.784   2.696
  120MYC    H9823861   3.767   1.958   2.717
  120MYC    C5023862   3.608   1.912   2.569
  120MYC    H9523863   3.590   2.020   2.567
  120MYC    H9623864   3.514   1.856   2.570
  120MYC    C4923865   3.688   1.871   2.444
  120MYC    H9323866   3.714   1.765   2.446
  120MYC    H9423867   3.779   1.933   2.448
  120MYC    C4823868   3.618   1.897   2.309
  120MYC    H9123869   3.556   1.987   2.318
  120MYC    H9223870   3.554   1.809   2.294
  120MYC    C4723871   3.719   1.906   2.193
  120MYC    H8923872   3.782   1.817   2.184
  120MYC    H9023873   3.787   1.991   2.199
  120MYC    C4623874   3.637   1.925   2.064
  120MYC    H8723875   3.617   2.033   2.064
  120MYC    H8823876   3.543   1.870   2.052
  120MYC    C4523877   3.720   1.901   1.936
  120MYC    H8523878   3.765   1.802   1.946
  120MYC    H8623879   3.809   1.965   1.928
  120MYC    C4423880   3.652   1.915   1.799
  120MYC    H8323881   3.731   1.913   1.724
  120MYC    H8423882   3.601   2.012   1.794
  120MYC    C1823883   3.558   1.797   1.776
  120MYC    H3123884   3.605   1.700   1.795
  120MYC    C1723885   3.417   1.813   1.825
  120MYC    H3023886   3.385   1.916   1.842
  120MYC    C1923887   3.443   1.786   1.679
  120MYC    H3223888   3.436   1.872   1.613
  120MYC    H3323889   3.429   1.687   1.634
  120MYC    C1623890   3.362   1.706   1.918
  120MYC    H2823891   3.441   1.683   1.991
  120MYC    H2923892   3.345   1.612   1.864
  120MYC    C1523893   3.233   1.747   1.991
  120MYC    H2623894   3.185   1.654   2.023
  120MYC    H2723895   3.164   1.794   1.920
  120MYC    C1423896   3.252   1.843   2.110
  120MYC    H2423897   3.292   1.939   2.075
  120MYC    H2523898   3.324   1.805   2.183
  120MYC    C1323899   3.125   1.867   2.193
  120MYC    H2223900   3.078   1.770   2.212
  120MYC    H2323901   3.057   1.931   2.135
  120MYC    C1223902   3.135   1.945   2.326
  120MYC    H2023903   3.179   2.043   2.301
  120MYC    H2123904   3.205   1.895   2.393
  120MYC    C1123905   3.003   1.957   2.404
  120MYC    H1823906   2.971   1.863   2.452
  120MYC    H1923907   2.924   1.974   2.330
  120MYC    C1023908   3.010   2.068   2.511
  120MYC    H1623909   2.910   2.079   2.555
  120MYC    H1723910   3.043   2.164   2.468
  120MYC     C923911   3.103   2.045   2.631
  120MYC    H1423912   3.206   2.056   2.596
  120MYC    H1523913   3.095   1.938   2.652
  120MYC     C823914   3.080   2.137   2.751
  120MYC    H1223915   2.998   2.082   2.799
  120MYC    H1323916   3.064   2.240   2.717
  120MYC     C723917   3.196   2.132   2.853
  120MYC    H1023918   3.290   2.156   2.804
  120MYC    H1123919   3.190   2.036   2.905
  120MYC     C623920   3.170   2.240   2.960
  120MYC     H823921   3.062   2.253   2.978
  120MYC     H923922   3.200   2.336   2.916
  120MYC     C523923   3.243   2.222   3.094
  120MYC     H623924   3.223   2.313   3.151
  120MYC     H723925   3.349   2.219   3.065
  120MYC     C423926   3.209   2.098   3.179
  120MYC     H423927   3.291   2.025   3.179
  120MYC     H523928   3.129   2.048   3.123
  120MYC     C223929   3.174   2.120   3.327
  120MYC     H223930   3.192   2.030   3.386
  120MYC     O323931   3.262   2.219   3.379
  120MYC     H323932   3.356   2.193   3.369
  120MYC     C123933   3.028   2.153   3.361
  120MYC     H123934   2.984   2.056   3.332
  120MYC    C8123935   2.967   2.260   3.272
  120MYC    O8223936   2.945   2.374   3.309
  120MYC    O8323937   2.896   2.207   3.170
  120MYC   6H1523938   2.859   2.283   3.122
  120MYC    C2023939   3.000   2.187   3.509
  120MYC    H3423940   3.045   2.280   3.546
  120MYC    H3523941   2.892   2.201   3.518
  120MYC    C2123942   3.048   2.076   3.604
  120MYC    H3623943   3.028   1.978   3.560
  120MYC    H3723944   3.156   2.087   3.617
  120MYC    C2223945   2.979   2.087   3.741
  120MYC    H3823946   2.974   2.194   3.763
  120MYC    H3923947   2.874   2.059   3.734
  120MYC    C2323948   3.038   2.007   3.859
  120MYC    H4023949   3.037   1.905   3.820
  120MYC    H4123950   3.141   2.040   3.882
  120MYC    C2423951   2.950   2.012   3.985
  120MYC    H4223952   2.926   2.117   4.003
  120MYC    H4323953   2.858   1.955   3.969
  120MYC    C2523954   3.019   1.951   4.108
  120MYC    H4423955   3.024   1.842   4.098
  120MYC    H4523956   3.122   1.989   4.113
  120MYC    C2623957   2.956   1.974   4.246
  120MYC    H4623958   3.006   2.061   4.291
  120MYC    H4723959   2.849   1.996   4.240
  120MYC    C2723960   2.972   1.847   4.332
  120MYC    H4823961   2.921   1.760   4.289
  120MYC    H4923962   3.079   1.823   4.337
  120MYC    C2823963   2.914   1.872   4.473
  120MYC    H5023964   2.905   1.980   4.492
  120MYC    H5123965   2.818   1.820   4.478
  120MYC    C2923966   3.007   1.838   4.591
  120MYC    H5223967   3.038   1.733   4.583
  120MYC    H5323968   3.104   1.888   4.580
  120MYC    C3023969   2.941   1.873   4.725
  120MYC    H5423970   2.896   1.973   4.718
  120MYC    H5523971   2.858   1.801   4.734
  120MYC    C3123972   3.030   1.861   4.850
  120MYC    H5623973   3.077   1.762   4.839
  120MYC    H5723974   3.110   1.936   4.841
  120MYC    C3223975   2.950   1.882   4.979
  120MYC    H5823976   2.881   1.965   4.959
  120MYC    H5923977   2.879   1.800   4.998
  120MYC    C3323978   3.045   1.902   5.098
  120MYC    H6023979   3.108   1.812   5.095
  120MYC    H6123980   3.113   1.985   5.073
  120MYC    C3423981   2.995   1.943   5.237
  120MYC    H6223982   3.002   2.053   5.236
  120MYC    H6323983   2.893   1.906   5.252
  120MYC    C3523984   3.089   1.889   5.346
  120MYC    H6423985   3.135   1.794   5.319
  120MYC    H6523986   3.172   1.957   5.369
  120MYC    C3623987   3.012   1.870   5.477
  120MYC    H6623988   2.943   1.954   5.491
  120MYC    H6723989   2.955   1.778   5.459
  120MYC    C3723990   3.106   1.851   5.598
  120MYC    H6823991   3.179   1.771   5.580
  120MYC    H6923992   3.160   1.946   5.599
  120MYC    C3823993   3.033   1.828   5.731
  120MYC    H7023994   2.971   1.913   5.760
  120MYC    H7123995   2.957   1.751   5.712
  120MYC    C3923996   3.133   1.789   5.842
  120MYC    H7223997   3.191   1.702   5.808
  120MYC    H7323998   3.208   1.869   5.847
  120MYC    C4023999   3.058   1.772   5.975
  120MYC    H7424000   2.956   1.810   5.966
  120MYC    H7524001   3.047   1.666   6.004
  120MYC    C4124002   3.105   1.851   6.098
  120MYC    H7624003   3.182   1.789   6.146
  120MYC    H7724004   3.165   1.937   6.065
  120MYC    C4224005   2.999   1.886   6.204
  120MYC    H7824006   2.911   1.932   6.158
  120MYC    H7924007   2.974   1.797   6.263
  120MYC    C4324008   3.061   1.981   6.308
  120MYC    H8024009   2.998   1.996   6.396
  120MYC    H8124010   3.079   2.078   6.260
  120MYC    H8224011   3.161   1.945   6.338
  121MYC   5H1524012   3.263   3.087   6.211
  121MYC    C8024013   3.253   3.087   6.102
  121MYC   3H1524014   3.241   2.983   6.070
  121MYC   4H1524015   3.158   3.136   6.077
  121MYC    C7924016   3.369   3.156   6.028
  121MYC   1H1524017   3.460   3.098   6.045
  121MYC   2H1524018   3.380   3.252   6.082
  121MYC    C7824019   3.356   3.185   5.878
  121MYC   9H1424020   3.450   3.233   5.846
  121MYC   0H1524021   3.281   3.262   5.855
  121MYC    C7724022   3.338   3.061   5.790
  121MYC   7H1424023   3.262   2.996   5.836
  121MYC   8H1424024   3.434   3.012   5.770
  121MYC    C7624025   3.297   3.112   5.650
  121MYC   5H1424026   3.351   3.205   5.634
  121MYC   6H1424027   3.189   3.130   5.659
  121MYC    C7524028   3.325   3.005   5.543
  121MYC   3H1424029   3.276   2.912   5.573
  121MYC   4H1424030   3.432   2.983   5.531
  121MYC    C7424031   3.272   3.053   5.407
  121MYC   1H1424032   3.325   3.149   5.395
  121MYC   2H1424033   3.166   3.078   5.417
  121MYC    C7324034   3.302   2.962   5.286
  121MYC   9H1324035   3.229   2.880   5.285
  121MYC   0H1424036   3.400   2.913   5.288
  121MYC    C7224037   3.286   3.042   5.156
  121MYC   7H1324038   3.339   3.138   5.165
  121MYC   8H1324039   3.183   3.074   5.138
  121MYC    C7124040   3.350   2.973   5.034
  121MYC   5H1324041   3.288   2.885   5.014
  121MYC   6H1324042   3.448   2.933   5.064
  121MYC    C7024043   3.367   3.056   4.906
  121MYC   3H1324044   3.426   3.146   4.925
  121MYC   4H1324045   3.267   3.096   4.883
  121MYC    C6924046   3.422   2.975   4.787
  121MYC   1H1324047   3.360   2.884   4.780
  121MYC   2H1324048   3.526   2.944   4.802
  121MYC    C6824049   3.417   3.041   4.649
  121MYC   9H1224050   3.474   3.134   4.659
  121MYC   0H1324051   3.314   3.070   4.624
  121MYC    C6724052   3.479   2.962   4.533
  121MYC   7H1224053   3.427   2.867   4.517
  121MYC   8H1224054   3.585   2.945   4.556
  121MYC    C6624055   3.469   3.043   4.402
  121MYC   5H1224056   3.524   3.139   4.407
  121MYC   6H1224057   3.363   3.066   4.385
  121MYC    C6524058   3.510   2.968   4.275
  121MYC   3H1224059   3.457   2.873   4.265
  121MYC   4H1224060   3.616   2.945   4.292
  121MYC    C6424061   3.492   3.051   4.147
  121MYC   1H1224062   3.554   3.141   4.160
  121MYC   2H1224063   3.387   3.073   4.123
  121MYC    C6324064   3.549   2.976   4.025
  121MYC   9H1124065   3.493   2.882   4.022
  121MYC   0H1224066   3.657   2.961   4.029
  121MYC    C6224067   3.513   3.052   3.896
  121MYC   7H1124068   3.555   3.151   3.914
  121MYC   8H1124069   3.403   3.058   3.888
  121MYC    C6124070   3.563   2.994   3.762
  121MYC   5H1124071   3.531   2.889   3.759
  121MYC   6H1124072   3.672   3.006   3.759
  121MYC    C6024073   3.502   3.069   3.645
  121MYC   4H1124074   3.514   3.177   3.649
  121MYC    C5824075   3.526   3.007   3.510
  121MYC   1H1124076   3.578   2.912   3.513
  121MYC    C5924077   3.386   3.016   3.565
  121MYC   2H1124078   3.321   3.089   3.517
  121MYC   3H1124079   3.340   2.920   3.586
  121MYC    C5724080   3.565   3.099   3.395
  121MYC   9H1024081   3.674   3.107   3.390
  121MYC   0H1124082   3.530   3.199   3.422
  121MYC    C5624083   3.513   3.045   3.260
  121MYC   7H1024084   3.406   3.025   3.269
  121MYC   8H1024085   3.553   2.946   3.235
  121MYC    C5524086   3.538   3.145   3.146
  121MYC   5H1024087   3.646   3.132   3.129
  121MYC   6H1024088   3.518   3.250   3.169
  121MYC    C5424089   3.475   3.101   3.012
  121MYC   3H1024090   3.367   3.089   3.027
  121MYC   4H1024091   3.520   3.005   2.984
  121MYC    C5324092   3.487   3.193   2.889
  121MYC   1H1024093   3.586   3.235   2.868
  121MYC   2H1024094   3.417   3.277   2.898
  121MYC    C5224095   3.433   3.125   2.762
  121MYC    H9924096   3.325   3.110   2.775
  121MYC   0H1024097   3.482   3.027   2.750
  121MYC    C5124098   3.461   3.193   2.627
  121MYC    H9724099   3.565   3.229   2.627
  121MYC    H9824100   3.390   3.276   2.618
  121MYC    C5024101   3.444   3.098   2.507
  121MYC    H9524102   3.338   3.069   2.505
  121MYC    H9624103   3.496   3.002   2.513
  121MYC    C4924104   3.484   3.156   2.371
  121MYC    H9324105   3.593   3.153   2.365
  121MYC    H9424106   3.449   3.260   2.359
  121MYC    C4824107   3.431   3.070   2.255
  121MYC    H9124108   3.324   3.048   2.268
  121MYC    H9224109   3.475   2.969   2.256
  121MYC    C4724110   3.445   3.135   2.116
  121MYC    H8924111   3.551   3.142   2.089
  121MYC    H9024112   3.400   3.235   2.121
  121MYC    C4624113   3.371   3.047   2.014
  121MYC    H8724114   3.268   3.082   2.024
  121MYC    H8824115   3.371   2.941   2.041
  121MYC    C4524116   3.409   3.083   1.869
  121MYC    H8524117   3.517   3.079   1.853
  121MYC    H8624118   3.377   3.187   1.853
  121MYC    C4424119   3.334   2.994   1.768
  121MYC    H8324120   3.356   3.011   1.662
  121MYC    H8424121   3.225   3.002   1.778
  121MYC    C1824122   3.379   2.850   1.786
  121MYC    H3124123   3.474   2.848   1.839
  121MYC    C1724124   3.284   2.735   1.809
  121MYC    H3024125   3.181   2.764   1.828
  121MYC    C1924126   3.354   2.750   1.676
  121MYC    H3224127   3.305   2.783   1.585
  121MYC    H3324128   3.434   2.678   1.658
  121MYC    C1624129   3.338   2.647   1.920
  121MYC    H2824130   3.360   2.705   2.011
  121MYC    H2924131   3.433   2.604   1.885
  121MYC    C1524132   3.255   2.521   1.946
  121MYC    H2624133   3.317   2.437   1.980
  121MYC    H2724134   3.207   2.480   1.856
  121MYC    C1424135   3.148   2.562   2.049
  121MYC    H2424136   3.075   2.635   2.012
  121MYC    H2524137   3.199   2.608   2.134
  121MYC    C1324138   3.064   2.442   2.094
  121MYC    H2224139   3.092   2.350   2.041
  121MYC    H2324140   2.959   2.450   2.061
  121MYC    C1224141   3.052   2.416   2.245
  121MYC    H2024142   2.989   2.327   2.263
  121MYC    H2124143   3.008   2.504   2.293
  121MYC    C1124144   3.191   2.394   2.307
  121MYC    H1824145   3.269   2.443   2.248
  121MYC    H1924146   3.208   2.288   2.285
  121MYC    C1024147   3.199   2.427   2.457
  121MYC    H1624148   3.244   2.340   2.507
  121MYC    H1724149   3.102   2.458   2.499
  121MYC     C924150   3.298   2.543   2.479
  121MYC    H1424151   3.278   2.636   2.424
  121MYC    H1524152   3.394   2.502   2.445
  121MYC     C824153   3.290   2.582   2.628
  121MYC    H1224154   3.331   2.496   2.681
  121MYC    H1324155   3.189   2.615   2.655
  121MYC     C724156   3.379   2.704   2.659
  121MYC    H1024157   3.337   2.797   2.619
  121MYC    H1124158   3.477   2.684   2.616
  121MYC     C624159   3.397   2.732   2.809
  121MYC     H824160   3.491   2.787   2.822
  121MYC     H924161   3.424   2.633   2.848
  121MYC     C524162   3.277   2.795   2.883
  121MYC     H624163   3.182   2.753   2.848
  121MYC     H724164   3.264   2.902   2.863
  121MYC     C424165   3.291   2.774   3.035
  121MYC     H424166   3.382   2.829   3.061
  121MYC     H524167   3.326   2.672   3.054
  121MYC     C224168   3.170   2.806   3.125
  121MYC     H224169   3.210   2.853   3.216
  121MYC     O324170   3.088   2.900   3.056
  121MYC     H324171   3.071   2.851   2.973
  121MYC     C124172   3.096   2.678   3.166
  121MYC     H124173   3.163   2.591   3.175
  121MYC    C8124174   3.005   2.624   3.057
  121MYC    O8224175   2.927   2.686   2.986
  121MYC    O8324176   2.983   2.491   3.067
  121MYC   6H1524177   2.895   2.470   3.032
  121MYC    C2024178   3.026   2.690   3.302
  121MYC    H3424179   2.995   2.794   3.317
  121MYC    H3524180   2.934   2.631   3.298
  121MYC    C2124181   3.119   2.649   3.418
  121MYC    H3624182   3.145   2.542   3.414
  121MYC    H3724183   3.203   2.719   3.406
  121MYC    C2224184   3.061   2.670   3.559
  121MYC    H3824185   3.007   2.765   3.569
  121MYC    H3924186   2.981   2.597   3.576
  121MYC    C2324187   3.157   2.644   3.676
  121MYC    H4024188   3.189   2.539   3.678
  121MYC    H4124189   3.249   2.703   3.672
  121MYC    C2424190   3.093   2.652   3.816
  121MYC    H4224191   3.070   2.759   3.821
  121MYC    H4324192   2.993   2.607   3.807
  121MYC    C2524193   3.165   2.602   3.942
  121MYC    H4424194   3.166   2.492   3.934
  121MYC    H4524195   3.265   2.647   3.944
  121MYC    C2624196   3.093   2.644   4.071
  121MYC    H4624197   3.078   2.753   4.074
  121MYC    H4724198   2.991   2.603   4.074
  121MYC    C2724199   3.162   2.587   4.196
  121MYC    H4824200   3.148   2.478   4.200
  121MYC    H4924201   3.271   2.599   4.193
  121MYC    C2824202   3.103   2.644   4.326
  121MYC    H5024203   3.107   2.753   4.321
  121MYC    H5124204   2.995   2.625   4.322
  121MYC    C2924205   3.167   2.596   4.457
  121MYC    H5224206   3.121   2.497   4.471
  121MYC    H5324207   3.277   2.592   4.456
  121MYC    C3024208   3.123   2.677   4.580
  121MYC    H5424209   3.145   2.783   4.565
  121MYC    H5524210   3.014   2.683   4.578
  121MYC    C3124211   3.168   2.622   4.717
  121MYC    H5624212   3.188   2.515   4.711
  121MYC    H5724213   3.266   2.668   4.732
  121MYC    C3224214   3.085   2.672   4.837
  121MYC    H5824215   3.077   2.781   4.838
  121MYC    H5924216   2.980   2.645   4.817
  121MYC    C3324217   3.131   2.624   4.975
  121MYC    H6024218   3.151   2.517   4.961
  121MYC    H6124219   3.229   2.665   5.004
  121MYC    C3424220   3.031   2.643   5.091
  121MYC    H6224221   3.010   2.750   5.105
  121MYC    H6324222   2.939   2.596   5.055
  121MYC    C3524223   3.068   2.589   5.230
  121MYC    H6424224   3.093   2.482   5.228
  121MYC    H6524225   3.163   2.634   5.261
  121MYC    C3624226   2.954   2.623   5.328
  121MYC    H6624227   2.913   2.720   5.298
  121MYC    H6724228   2.880   2.543   5.318
  121MYC    C3724229   3.003   2.636   5.474
  121MYC    H6824230   3.053   2.544   5.509
  121MYC    H6924231   3.075   2.719   5.474
  121MYC    C3824232   2.886   2.675   5.566
  121MYC    H7024233   2.858   2.773   5.527
  121MYC    H7124234   2.789   2.626   5.550
  121MYC    C3924235   2.919   2.659   5.715
  121MYC    H7224236   2.961   2.561   5.742
  121MYC    H7324237   3.001   2.726   5.745
  121MYC    C4024238   2.800   2.700   5.803
  121MYC    H7424239   2.760   2.799   5.777
  121MYC    H7524240   2.725   2.620   5.802
  121MYC    C4124241   2.847   2.702   5.950
  121MYC    H7624242   2.925   2.628   5.971
  121MYC    H7724243   2.901   2.795   5.969
  121MYC    C4224244   2.735   2.690   6.054
  121MYC    H7824245   2.658   2.769   6.048
  121MYC    H7924246   2.664   2.611   6.028
  121MYC    C4324247   2.790   2.680   6.197
  121MYC    H8024248   2.713   2.660   6.274
  121MYC    H8124249   2.847   2.769   6.225
  121MYC    H8224250   2.859   2.595   6.201
  122MYC   5H1524251   3.574   3.537   6.276
  122MYC    C8024252   3.563   3.597   6.186
  122MYC   3H1524253   3.455   3.608   6.176
  122MYC   4H1524254   3.620   3.690   6.202
  122MYC    C7924255   3.604   3.530   6.054
  122MYC   1H1524256   3.548   3.439   6.030
  122MYC   2H1524257   3.712   3.508   6.058
  122MYC    C7824258   3.586   3.620   5.930
  122MYC   9H1424259   3.626   3.720   5.951
  122MYC   0H1524260   3.478   3.632   5.911
  122MYC    C7724261   3.650   3.561   5.803
  122MYC   7H1424262   3.611   3.460   5.786
  122MYC   8H1424263   3.757   3.555   5.826
  122MYC    C7624264   3.619   3.651   5.682
  122MYC   5H1424265   3.643   3.756   5.704
  122MYC   6H1424266   3.511   3.655   5.666
  122MYC    C7524267   3.694   3.603   5.557
  122MYC   3H1424268   3.675   3.496   5.540
  122MYC   4H1424269   3.801   3.604   5.578
  122MYC    C7424270   3.648   3.682   5.433
  122MYC   1H1424271   3.683   3.786   5.440
  122MYC   2H1424272   3.541   3.700   5.421
  122MYC    C7324273   3.690   3.608   5.304
  122MYC   9H1324274   3.647   3.508   5.314
  122MYC   0H1424275   3.799   3.598   5.307
  122MYC    C7224276   3.642   3.679   5.176
  122MYC   7H1324277   3.685   3.779   5.172
  122MYC   8H1324278   3.532   3.683   5.174
  122MYC    C7124279   3.705   3.604   5.058
  122MYC   5H1324280   3.652   3.509   5.041
  122MYC   6H1324281   3.811   3.584   5.073
  122MYC    C7024282   3.695   3.690   4.931
  122MYC   3H1324283   3.777   3.763   4.935
  122MYC   4H1324284   3.603   3.749   4.926
  122MYC    C6924285   3.700   3.599   4.806
  122MYC   1H1324286   3.614   3.531   4.814
  122MYC   2H1324287   3.794   3.544   4.808
  122MYC    C6824288   3.685   3.678   4.675
  122MYC   9H1224289   3.765   3.752   4.667
  122MYC   0H1324290   3.591   3.735   4.669
  122MYC    C6724291   3.693   3.585   4.552
  122MYC   7H1224292   3.618   3.505   4.550
  122MYC   8H1224293   3.794   3.542   4.559
  122MYC    C6624294   3.685   3.658   4.416
  122MYC   5H1224295   3.778   3.713   4.400
  122MYC   6H1224296   3.603   3.730   4.424
  122MYC    C6524297   3.662   3.557   4.303
  122MYC   3H1224298   3.557   3.525   4.311
  122MYC   4H1224299   3.720   3.465   4.316
  122MYC    C6424300   3.674   3.611   4.160
  122MYC   1H1224301   3.781   3.631   4.143
  122MYC   2H1224302   3.610   3.700   4.154
  122MYC    C6324303   3.633   3.513   4.049
  122MYC   9H1124304   3.540   3.459   4.068
  122MYC   0H1224305   3.713   3.443   4.022
  122MYC    C6224306   3.597   3.592   3.922
  122MYC   7H1124307   3.683   3.656   3.901
  122MYC   8H1124308   3.509   3.656   3.939
  122MYC    C6124309   3.581   3.500   3.800
  122MYC   5H1124310   3.498   3.430   3.818
  122MYC   6H1124311   3.674   3.442   3.792
  122MYC    C6024312   3.566   3.586   3.675
  122MYC   4H1124313   3.639   3.667   3.671
  122MYC    C5824314   3.549   3.519   3.541
  122MYC   1H1124315   3.532   3.412   3.541
  122MYC    C5924316   3.434   3.593   3.604
  122MYC   2H1124317   3.409   3.683   3.548
  122MYC   3H1124318   3.353   3.542   3.657
  122MYC    C5724319   3.627   3.590   3.431
  122MYC   9H1024320   3.735   3.572   3.439
  122MYC   0H1124321   3.626   3.699   3.438
  122MYC    C5624322   3.572   3.546   3.294
  122MYC   7H1024323   3.467   3.573   3.277
  122MYC   8H1024324   3.575   3.436   3.296
  122MYC    C5524325   3.653   3.583   3.169
  122MYC   5H1024326   3.753   3.539   3.169
  122MYC   6H1024327   3.670   3.692   3.170
  122MYC    C5424328   3.577   3.547   3.040
  122MYC   3H1024329   3.472   3.577   3.052
  122MYC   4H1024330   3.574   3.438   3.026
  122MYC    C5324331   3.646   3.607   2.916
  122MYC   1H1024332   3.742   3.558   2.898
  122MYC   2H1024333   3.658   3.716   2.924
  122MYC    C5224334   3.557   3.582   2.793
  122MYC    H9924335   3.457   3.628   2.794
  122MYC   0H1024336   3.530   3.476   2.795
  122MYC    C5124337   3.640   3.617   2.668
  122MYC    H9724338   3.726   3.550   2.656
  122MYC    H9824339   3.674   3.720   2.680
  122MYC    C5024340   3.561   3.601   2.537
  122MYC    H9524341   3.468   3.657   2.526
  122MYC    H9624342   3.522   3.499   2.528
  122MYC    C4924343   3.645   3.632   2.412
  122MYC    H9324344   3.729   3.562   2.404
  122MYC    H9424345   3.695   3.727   2.433
  122MYC    C4824346   3.559   3.642   2.285
  122MYC    H9124347   3.491   3.729   2.281
  122MYC    H9224348   3.495   3.554   2.283
  122MYC    C4724349   3.649   3.656   2.161
  122MYC    H8924350   3.737   3.590   2.156
  122MYC    H9024351   3.687   3.759   2.159
  122MYC    C4624352   3.551   3.640   2.044
  122MYC    H8724353   3.479   3.723   2.041
  122MYC    H8824354   3.495   3.547   2.061
  122MYC    C4524355   3.622   3.620   1.909
  122MYC    H8524356   3.670   3.522   1.907
  122MYC    H8624357   3.698   3.697   1.898
  122MYC    C4424358   3.526   3.643   1.791
  122MYC    H8324359   3.580   3.621   1.698
  122MYC    H8424360   3.501   3.750   1.788
  122MYC    C1824361   3.393   3.568   1.797
  122MYC    H3124362   3.414   3.462   1.785
  122MYC    C1724363   3.268   3.621   1.862
  122MYC    H3024364   3.259   3.721   1.905
  122MYC    C1924365   3.281   3.620   1.712
  122MYC    H3224366   3.295   3.713   1.657
  122MYC    H3324367   3.226   3.542   1.659
  122MYC    C1624368   3.165   3.521   1.913
  122MYC    H2824369   3.194   3.417   1.891
  122MYC    H2924370   3.065   3.540   1.874
  122MYC    C1524371   3.155   3.536   2.065
  122MYC    H2624372   3.095   3.621   2.102
  122MYC    H2724373   3.256   3.550   2.107
  122MYC    C1424374   3.102   3.401   2.117
  122MYC    H2424375   3.183   3.328   2.103
  122MYC    H2524376   3.019   3.368   2.054
  122MYC    C1324377   3.059   3.406   2.265
  122MYC    H2224378   2.998   3.494   2.286
  122MYC    H2324379   3.152   3.402   2.322
  122MYC    C1224380   2.983   3.275   2.293
  122MYC    H2024381   3.057   3.197   2.276
  122MYC    H2124382   2.908   3.257   2.216
  122MYC    C1124383   2.908   3.276   2.428
  122MYC    H1824384   2.831   3.198   2.432
  122MYC    H1924385   2.840   3.361   2.418
  122MYC    C1024386   2.997   3.271   2.553
  122MYC    H1624387   3.092   3.321   2.531
  122MYC    H1724388   3.013   3.165   2.578
  122MYC     C924389   2.927   3.345   2.668
  122MYC    H1424390   2.838   3.288   2.696
  122MYC    H1524391   2.905   3.448   2.635
  122MYC     C824392   3.022   3.344   2.789
  122MYC    H1224393   3.116   3.395   2.764
  122MYC    H1324394   3.047   3.243   2.821
  122MYC     C724395   2.955   3.411   2.910
  122MYC    H1024396   2.851   3.381   2.927
  122MYC    H1124397   2.932   3.513   2.875
  122MYC     C624398   3.041   3.421   3.037
  122MYC     H824399   2.984   3.486   3.105
  122MYC     H924400   3.128   3.483   3.015
  122MYC     C524401   3.090   3.287   3.093
  122MYC     H624402   3.168   3.305   3.168
  122MYC     H724403   3.138   3.231   3.011
  122MYC     C424404   2.978   3.203   3.157
  122MYC     H424405   3.028   3.110   3.187
  122MYC     H524406   2.907   3.181   3.076
  122MYC     C224407   2.913   3.270   3.279
  122MYC     H224408   2.985   3.334   3.331
  122MYC     O324409   2.803   3.347   3.233
  122MYC     H324410   2.727   3.297   3.199
  122MYC     C124411   2.865   3.168   3.384
  122MYC     H124412   2.947   3.103   3.417
  122MYC    C8124413   2.765   3.070   3.324
  122MYC    O8224414   2.644   3.068   3.344
  122MYC    O8324415   2.816   2.962   3.261
  122MYC   6H1524416   2.745   2.910   3.220
  122MYC    C2024417   2.808   3.234   3.511
  122MYC    H3424418   2.732   3.310   3.491
  122MYC    H3524419   2.768   3.161   3.583
  122MYC    C2124420   2.922   3.300   3.591
  122MYC    H3624421   2.995   3.223   3.615
  122MYC    H3724422   2.973   3.373   3.527
  122MYC    C2224423   2.875   3.367   3.722
  122MYC    H3824424   2.824   3.461   3.697
  122MYC    H3924425   2.803   3.306   3.777
  122MYC    C2324426   2.994   3.393   3.816
  122MYC    H4024427   3.038   3.295   3.837
  122MYC    H4124428   3.077   3.447   3.768
  122MYC    C2424429   2.944   3.454   3.948
  122MYC    H4224430   2.952   3.563   3.937
  122MYC    H4324431   2.839   3.429   3.964
  122MYC    C2524432   3.023   3.403   4.070
  122MYC    H4424433   2.989   3.305   4.105
  122MYC    H4524434   3.125   3.399   4.029
  122MYC    C2624435   3.012   3.499   4.190
  122MYC    H4624436   3.029   3.599   4.148
  122MYC    H4724437   2.912   3.494   4.236
  122MYC    C2724438   3.109   3.479   4.307
  122MYC    H4824439   3.112   3.372   4.331
  122MYC    H4924440   3.213   3.500   4.277
  122MYC    C2824441   3.083   3.567   4.431
  122MYC    H5024442   3.113   3.669   4.404
  122MYC    H5124443   2.974   3.574   4.446
  122MYC    C2924444   3.163   3.516   4.551
  122MYC    H5224445   3.119   3.426   4.596
  122MYC    H5324446   3.260   3.483   4.512
  122MYC    C3024447   3.201   3.613   4.664
  122MYC    H5424448   3.257   3.560   4.743
  122MYC    H5524449   3.270   3.687   4.623
  122MYC    C3124450   3.079   3.685   4.723
  122MYC    H5624451   3.032   3.755   4.653
  122MYC    H5724452   3.005   3.609   4.751
  122MYC    C3224453   3.108   3.768   4.849
  122MYC    H5824454   3.173   3.853   4.822
  122MYC    H5924455   3.008   3.810   4.870
  122MYC    C3324456   3.167   3.691   4.968
  122MYC    H6024457   3.113   3.598   4.987
  122MYC    H6124458   3.265   3.650   4.939
  122MYC    C3424459   3.182   3.784   5.090
  122MYC    H6224460   3.276   3.836   5.069
  122MYC    H6324461   3.091   3.846   5.097
  122MYC    C3524462   3.188   3.698   5.217
  122MYC    H6424463   3.125   3.610   5.202
  122MYC    H6524464   3.290   3.662   5.234
  122MYC    C3624465   3.159   3.768   5.352
  122MYC    H6624466   3.244   3.831   5.379
  122MYC    H6724467   3.070   3.831   5.348
  122MYC    C3724468   3.142   3.665   5.465
  122MYC    H6824469   3.043   3.619   5.460
  122MYC    H6924470   3.216   3.585   5.452
  122MYC    C3824471   3.159   3.721   5.607
  122MYC    H7024472   3.258   3.767   5.618
  122MYC    H7124473   3.083   3.797   5.628
  122MYC    C3924474   3.153   3.608   5.711
  122MYC    H7224475   3.053   3.568   5.690
  122MYC    H7324476   3.234   3.540   5.683
  122MYC    C4024477   3.163   3.653   5.858
  122MYC    H7424478   3.260   3.704   5.868
  122MYC    H7524479   3.089   3.732   5.873
  122MYC    C4124480   3.152   3.540   5.961
  122MYC    H7624481   3.066   3.476   5.941
  122MYC    H7724482   3.240   3.475   5.953
  122MYC    C4224483   3.141   3.598   6.103
  122MYC    H7824484   3.225   3.666   6.123
  122MYC    H7924485   3.051   3.661   6.106
  122MYC    C4324486   3.148   3.490   6.212
  122MYC    H8024487   3.177   3.525   6.312
  122MYC    H8124488   3.220   3.412   6.185
  122MYC    H8224489   3.045   3.450   6.211
  123MYC   5H1524490   3.494   4.152   6.235
  123MYC    C8024491   3.428   4.180   6.152
  123MYC   3H1524492   3.380   4.082   6.137
  123MYC   4H1524493   3.352   4.252   6.184
  123MYC    C7924494   3.504   4.237   6.032
  123MYC   1H1524495   3.595   4.176   6.018
  123MYC   2H1524496   3.534   4.337   6.066
  123MYC    C7824497   3.427   4.245   5.899
  123MYC   9H1424498   3.356   4.328   5.889
  123MYC   0H1524499   3.354   4.164   5.905
  123MYC    C7724500   3.510   4.233   5.770
  123MYC   7H1424501   3.581   4.151   5.787
  123MYC   8H1424502   3.576   4.321   5.766
  123MYC    C7624503   3.425   4.210   5.645
  123MYC   5H1424504   3.370   4.301   5.619
  123MYC   6H1424505   3.344   4.136   5.649
  123MYC    C7524506   3.519   4.172   5.530
  123MYC   3H1424507   3.584   4.092   5.568
  123MYC   4H1424508   3.584   4.254   5.498
  123MYC    C7424509   3.444   4.114   5.408
  123MYC   1H1424510   3.378   4.190   5.366
  123MYC   2H1424511   3.382   4.028   5.438
  123MYC    C7324512   3.543   4.065   5.301
  123MYC   9H1324513   3.545   3.957   5.317
  123MYC   0H1424514   3.644   4.109   5.302
  123MYC    C7224515   3.491   4.090   5.158
  123MYC   7H1324516   3.445   4.189   5.150
  123MYC   8H1324517   3.417   4.011   5.139
  123MYC    C7124518   3.605   4.092   5.055
  123MYC   5H1324519   3.644   3.989   5.055
  123MYC   6H1324520   3.690   4.149   5.094
  123MYC    C7024521   3.570   4.143   4.915
  123MYC   3H1324522   3.554   4.251   4.929
  123MYC   4H1324523   3.475   4.100   4.880
  123MYC    C6924524   3.686   4.112   4.819
  123MYC   1H1324525   3.702   4.003   4.817
  123MYC   2H1324526   3.779   4.161   4.849
  123MYC    C6824527   3.654   4.157   4.676
  123MYC   9H1224528   3.641   4.266   4.671
  123MYC   0H1324529   3.558   4.109   4.657
  123MYC    C6724530   3.751   4.100   4.570
  123MYC   7H1224531   3.767   3.993   4.584
  123MYC   8H1224532   3.850   4.147   4.581
  123MYC    C6624533   3.693   4.130   4.431
  123MYC   5H1224534   3.693   4.235   4.399
  123MYC   6H1224535   3.587   4.103   4.443
  123MYC    C6524536   3.735   4.035   4.317
  123MYC   3H1224537   3.702   3.932   4.336
  123MYC   4H1224538   3.844   4.033   4.322
  123MYC    C6424539   3.685   4.090   4.182
  123MYC   1H1224540   3.740   4.184   4.169
  123MYC   2H1224541   3.581   4.125   4.190
  123MYC    C6324542   3.694   3.996   4.061
  123MYC   9H1124543   3.646   3.901   4.088
  123MYC   0H1224544   3.802   3.974   4.051
  123MYC    C6224545   3.638   4.054   3.930
  123MYC   7H1124546   3.687   4.151   3.916
  123MYC   8H1124547   3.532   4.071   3.950
  123MYC    C6124548   3.671   3.982   3.798
  123MYC   5H1124549   3.652   3.875   3.806
  123MYC   6H1124550   3.780   3.992   3.785
  123MYC    C6024551   3.593   4.053   3.688
  123MYC   4H1124552   3.604   4.161   3.688
  123MYC    C5824553   3.581   3.987   3.553
  123MYC   1H1124554   3.627   3.889   3.549
  123MYC    C5924555   3.458   4.008   3.638
  123MYC   2H1124556   3.395   4.094   3.620
  123MYC   3H1124557   3.416   3.918   3.682
  123MYC    C5724558   3.613   4.065   3.426
  123MYC   9H1024559   3.720   4.091   3.423
  123MYC   0H1124560   3.558   4.159   3.412
  123MYC    C5624561   3.581   3.984   3.299
  123MYC   7H1024562   3.479   3.948   3.313
  123MYC   8H1024563   3.648   3.897   3.295
  123MYC    C5524564   3.584   4.061   3.165
  123MYC   5H1024565   3.679   4.113   3.151
  123MYC   6H1024566   3.510   4.141   3.175
  123MYC    C5424567   3.547   3.971   3.046
  123MYC   3H1024568   3.439   3.981   3.034
  123MYC   4H1024569   3.574   3.867   3.070
  123MYC    C5324570   3.614   4.017   2.915
  123MYC   1H1024571   3.718   3.984   2.913
  123MYC   2H1024572   3.614   4.126   2.928
  123MYC    C5224573   3.541   3.975   2.787
  123MYC    H9924574   3.442   4.024   2.793
  123MYC   0H1024575   3.524   3.867   2.786
  123MYC    C5124576   3.615   4.022   2.661
  123MYC    H9724577   3.709   3.969   2.638
  123MYC    H9824578   3.657   4.120   2.688
  123MYC    C5024579   3.526   4.033   2.536
  123MYC    H9524580   3.450   4.112   2.547
  123MYC    H9624581   3.477   3.936   2.519
  123MYC    C4924582   3.610   4.057   2.409
  123MYC    H9324583   3.687   3.982   2.387
  123MYC    H9424584   3.668   4.146   2.435
  123MYC    C4824585   3.533   4.086   2.279
  123MYC    H9124586   3.492   4.187   2.288
  123MYC    H9224587   3.451   4.015   2.268
  123MYC    C4724588   3.608   4.092   2.145
  123MYC    H8924589   3.674   4.004   2.144
  123MYC    H9024590   3.664   4.186   2.144
  123MYC    C4624591   3.525   4.105   2.016
  123MYC    H8724592   3.477   4.202   2.025
  123MYC    H8824593   3.461   4.016   2.008
  123MYC    C4524594   3.603   4.093   1.884
  123MYC    H8524595   3.640   3.990   1.872
  123MYC    H8624596   3.690   4.157   1.906
  123MYC    C4424597   3.543   4.142   1.751
  123MYC    H8324598   3.614   4.138   1.667
  123MYC    H8424599   3.527   4.250   1.765
  123MYC    C1824600   3.424   4.055   1.716
  123MYC    H3124601   3.447   3.954   1.751
  123MYC    C1724602   3.281   4.103   1.711
  123MYC    H3024603   3.260   4.207   1.731
  123MYC    C1924604   3.358   4.079   1.583
  123MYC    H3224605   3.382   4.166   1.524
  123MYC    H3324606   3.340   3.987   1.527
  123MYC    C1624607   3.170   4.007   1.752
  123MYC    H2824608   3.212   3.915   1.794
  123MYC    H2924609   3.109   3.973   1.667
  123MYC    C1524610   3.079   4.074   1.857
  123MYC    H2624611   2.990   4.011   1.870
  123MYC    H2724612   3.048   4.175   1.829
  123MYC    C1424613   3.141   4.086   1.997
  123MYC    H2424614   3.247   4.114   1.994
  123MYC    H2524615   3.137   3.985   2.041
  123MYC    C1324616   3.062   4.186   2.082
  123MYC    H2224617   2.954   4.166   2.076
  123MYC    H2324618   3.082   4.288   2.047
  123MYC    C1224619   3.104   4.173   2.229
  123MYC    H2024620   3.212   4.191   2.241
  123MYC    H2124621   3.085   4.068   2.257
  123MYC    C1124622   3.032   4.260   2.332
  123MYC    H1824623   2.925   4.234   2.337
  123MYC    H1924624   3.031   4.367   2.309
  123MYC    C1024625   3.101   4.256   2.469
  123MYC    H1624626   3.206   4.288   2.459
  123MYC    H1724627   3.104   4.154   2.510
  123MYC     C924628   3.027   4.348   2.569
  123MYC    H1424629   2.921   4.319   2.575
  123MYC    H1524630   3.028   4.446   2.520
  123MYC     C824631   3.094   4.367   2.706
  123MYC    H1224632   3.019   4.416   2.770
  123MYC    H1324633   3.181   4.434   2.702
  123MYC     C724634   3.135   4.238   2.778
  123MYC    H1024635   3.242   4.219   2.763
  123MYC    H1124636   3.077   4.151   2.742
  123MYC     C624637   3.122   4.248   2.931
  123MYC     H824638   3.024   4.290   2.954
  123MYC     H924639   3.194   4.323   2.966
  123MYC     C524640   3.137   4.121   3.017
  123MYC     H624641   3.239   4.082   3.022
  123MYC     H724642   3.082   4.046   2.959
  123MYC     C424643   3.073   4.122   3.157
  123MYC     H424644   3.078   4.015   3.179
  123MYC     H524645   2.968   4.155   3.155
  123MYC     C224646   3.153   4.197   3.265
  123MYC     H224647   3.253   4.152   3.259
  123MYC     O324648   3.163   4.336   3.235
  123MYC     H324649   3.087   4.351   3.177
  123MYC     C124650   3.109   4.175   3.410
  123MYC     H124651   3.115   4.068   3.432
  123MYC    C8124652   2.965   4.223   3.426
  123MYC    O8224653   2.866   4.152   3.431
  123MYC    O8324654   2.946   4.356   3.412
  123MYC   6H1524655   2.857   4.375   3.447
  123MYC    C2024656   3.200   4.261   3.499
  123MYC    H3424657   3.304   4.255   3.465
  123MYC    H3524658   3.172   4.366   3.488
  123MYC    C2124659   3.170   4.230   3.647
  123MYC    H3624660   3.066   4.250   3.675
  123MYC    H3724661   3.183   4.124   3.672
  123MYC    C2224662   3.259   4.324   3.731
  123MYC    H3824663   3.364   4.319   3.698
  123MYC    H3924664   3.231   4.429   3.720
  123MYC    C2324665   3.245   4.280   3.878
  123MYC    H4024666   3.160   4.211   3.881
  123MYC    H4124667   3.328   4.213   3.904
  123MYC    C2424668   3.233   4.401   3.971
  123MYC    H4224669   3.310   4.477   3.955
  123MYC    H4324670   3.136   4.450   3.956
  123MYC    C2524671   3.239   4.344   4.114
  123MYC    H4424672   3.179   4.253   4.117
  123MYC    H4524673   3.346   4.325   4.132
  123MYC    C2624674   3.174   4.441   4.214
  123MYC    H4624675   3.233   4.533   4.210
  123MYC    H4724676   3.069   4.458   4.187
  123MYC    C2724677   3.171   4.371   4.351
  123MYC    H4824678   3.112   4.280   4.333
  123MYC    H4924679   3.274   4.344   4.377
  123MYC    C2824680   3.130   4.459   4.470
  123MYC    H5024681   3.197   4.545   4.483
  123MYC    H5124682   3.032   4.502   4.445
  123MYC    C2924683   3.108   4.370   4.594
  123MYC    H5224684   3.028   4.297   4.576
  123MYC    H5324685   3.189   4.299   4.612
  123MYC    C3024686   3.078   4.453   4.720
  123MYC    H5424687   3.168   4.507   4.750
  123MYC    H5524688   2.993   4.521   4.705
  123MYC    C3124689   3.049   4.355   4.835
  123MYC    H5624690   2.989   4.268   4.807
  123MYC    H5724691   3.143   4.307   4.864
  123MYC    C3224692   2.983   4.416   4.960
  123MYC    H5824693   3.025   4.510   4.999
  123MYC    H5924694   2.882   4.448   4.931
  123MYC    C3324695   2.975   4.314   5.075
  123MYC    H6024696   2.966   4.212   5.037
  123MYC    H6124697   3.073   4.313   5.125
  123MYC    C3424698   2.853   4.347   5.162
  123MYC    H6224699   2.855   4.456   5.177
  123MYC    H6324700   2.762   4.315   5.110
  123MYC    C3524701   2.874   4.286   5.302
  123MYC    H6424702   2.891   4.179   5.289
  123MYC    H6524703   2.967   4.336   5.332
  123MYC    C3624704   2.754   4.306   5.397
  123MYC    H6624705   2.703   4.399   5.370
  123MYC    H6724706   2.680   4.227   5.382
  123MYC    C3724707   2.806   4.315   5.541
  123MYC    H6824708   2.849   4.218   5.571
  123MYC    H6924709   2.874   4.401   5.551
  123MYC    C3824710   2.684   4.333   5.633
  123MYC    H7024711   2.620   4.414   5.595
  123MYC    H7124712   2.629   4.238   5.632
  123MYC    C3924713   2.724   4.358   5.779
  123MYC    H7224714   2.824   4.316   5.797
  123MYC    H7324715   2.721   4.467   5.795
  123MYC    C4024716   2.620   4.301   5.876
  123MYC    H7424717   2.519   4.341   5.858
  123MYC    H7524718   2.610   4.192   5.865
  123MYC    C4124719   2.670   4.325   6.020
  123MYC    H7624720   2.748   4.252   6.046
  123MYC    H7724721   2.717   4.423   6.025
  123MYC    C4224722   2.552   4.323   6.118
  123MYC    H7824723   2.501   4.420   6.116
  123MYC    H7924724   2.479   4.252   6.077
  123MYC    C4324725   2.585   4.283   6.263
  123MYC    H8024726   2.492   4.282   6.323
  123MYC    H8124727   2.663   4.344   6.310
  123MYC    H8224728   2.627   4.182   6.270
  124MYC   5H1524729   3.101   5.538   6.249
  124MYC    C8024730   3.056   5.483   6.166
  124MYC   3H1524731   3.029   5.382   6.199
  124MYC   4H1524732   2.959   5.533   6.148
  124MYC    C7924733   3.144   5.499   6.042
  124MYC   1H1524734   3.238   5.444   6.060
  124MYC   2H1524735   3.178   5.604   6.037
  124MYC    C7824736   3.073   5.455   5.913
  124MYC   9H1424737   2.985   5.518   5.891
  124MYC   0H1524738   3.036   5.353   5.929
  124MYC    C7724739   3.158   5.461   5.785
  124MYC   7H1424740   3.231   5.380   5.793
  124MYC   8H1424741   3.209   5.558   5.778
  124MYC    C7624742   3.073   5.426   5.661
  124MYC   5H1424743   2.987   5.493   5.661
  124MYC   6H1424744   3.041   5.322   5.673
  124MYC    C7524745   3.159   5.458   5.538
  124MYC   3H1424746   3.236   5.380   5.546
  124MYC   4H1424747   3.205   5.557   5.544
  124MYC    C7424748   3.084   5.450   5.403
  124MYC   1H1424749   3.011   5.530   5.391
  124MYC   2H1424750   3.028   5.356   5.407
  124MYC    C7324751   3.187   5.453   5.289
  124MYC   9H1324752   3.263   5.374   5.299
  124MYC   0H1424753   3.231   5.553   5.304
  124MYC    C7224754   3.119   5.451   5.151
  124MYC   7H1324755   3.060   5.543   5.138
  124MYC   8H1324756   3.057   5.361   5.148
  124MYC    C7124757   3.222   5.439   5.038
  124MYC   5H1324758   3.275   5.344   5.029
  124MYC   6H1324759   3.300   5.515   5.052
  124MYC    C7024760   3.161   5.467   4.899
  124MYC   3H1324761   3.121   5.569   4.899
  124MYC   4H1324762   3.081   5.394   4.883
  124MYC    C6924763   3.268   5.458   4.788
  124MYC   1H1324764   3.311   5.357   4.784
  124MYC   2H1324765   3.348   5.530   4.804
  124MYC    C6824766   3.213   5.483   4.647
  124MYC   9H1224767   3.213   5.592   4.636
  124MYC   0H1324768   3.115   5.437   4.634
  124MYC    C6724769   3.301   5.426   4.534
  124MYC   7H1224770   3.289   5.317   4.536
  124MYC   8H1224771   3.407   5.448   4.553
  124MYC    C6624772   3.251   5.467   4.394
  124MYC   5H1224773   3.260   5.576   4.385
  124MYC   6H1224774   3.146   5.438   4.388
  124MYC    C6524775   3.332   5.400   4.282
  124MYC   3H1224776   3.290   5.299   4.274
  124MYC   4H1224777   3.440   5.400   4.302
  124MYC    C6424778   3.302   5.477   4.152
  124MYC   1H1224779   3.321   5.584   4.162
  124MYC   2H1224780   3.196   5.462   4.127
  124MYC    C6324781   3.386   5.421   4.036
  124MYC   9H1124782   3.367   5.314   4.026
  124MYC   0H1224783   3.493   5.425   4.061
  124MYC    C6224784   3.353   5.491   3.903
  124MYC   7H1124785   3.361   5.598   3.923
  124MYC   8H1124786   3.247   5.480   3.875
  124MYC    C6124787   3.458   5.462   3.794
  124MYC   5H1124788   3.501   5.362   3.803
  124MYC   6H1124789   3.532   5.539   3.818
  124MYC    C6024790   3.389   5.484   3.660
  124MYC   4H1124791   3.344   5.583   3.658
  124MYC    C5824792   3.455   5.422   3.539
  124MYC   1H1124793   3.540   5.357   3.559
  124MYC    C5924794   3.324   5.368   3.589
  124MYC   2H1124795   3.233   5.373   3.530
  124MYC   3H1124796   3.322   5.274   3.643
  124MYC    C5724797   3.464   5.494   3.405
  124MYC   9H1024798   3.560   5.544   3.387
  124MYC   0H1124799   3.392   5.577   3.414
  124MYC    C5624800   3.450   5.403   3.282
  124MYC   7H1024801   3.347   5.365   3.288
  124MYC   8H1024802   3.509   5.312   3.299
  124MYC    C5524803   3.476   5.466   3.145
  124MYC   5H1024804   3.578   5.506   3.144
  124MYC   6H1024805   3.408   5.551   3.129
  124MYC    C5424806   3.456   5.364   3.032
  124MYC   3H1024807   3.356   5.323   3.050
  124MYC   4H1024808   3.531   5.284   3.034
  124MYC    C5324809   3.468   5.432   2.895
  124MYC   1H1024810   3.555   5.497   2.893
  124MYC   2H1024811   3.388   5.506   2.885
  124MYC    C5224812   3.467   5.333   2.777
  124MYC    H9924813   3.381   5.266   2.780
  124MYC   0H1024814   3.558   5.273   2.787
  124MYC    C5124815   3.468   5.402   2.639
  124MYC    H9724816   3.567   5.445   2.619
  124MYC    H9824817   3.397   5.485   2.650
  124MYC    C5024818   3.428   5.308   2.525
  124MYC    H9524819   3.328   5.282   2.564
  124MYC    H9624820   3.494   5.221   2.533
  124MYC    C4924821   3.426   5.373   2.386
  124MYC    H9324822   3.522   5.341   2.342
  124MYC    H9424823   3.424   5.482   2.401
  124MYC    C4824824   3.308   5.330   2.298
  124MYC    H9124825   3.215   5.332   2.356
  124MYC    H9224826   3.316   5.224   2.270
  124MYC    C4724827   3.287   5.421   2.176
  124MYC    H8924828   3.313   5.521   2.213
  124MYC    H9024829   3.181   5.423   2.148
  124MYC    C4624830   3.370   5.379   2.054
  124MYC    H8724831   3.328   5.284   2.019
  124MYC    H8824832   3.474   5.356   2.081
  124MYC    C4524833   3.362   5.466   1.927
  124MYC    H8524834   3.419   5.422   1.844
  124MYC    H8624835   3.409   5.564   1.945
  124MYC    C4424836   3.218   5.493   1.881
  124MYC    H8324837   3.217   5.572   1.805
  124MYC    H8424838   3.155   5.540   1.957
  124MYC    C1824839   3.147   5.370   1.827
  124MYC    H3124840   3.198   5.326   1.742
  124MYC    C1724841   3.065   5.275   1.912
  124MYC    H3024842   3.038   5.298   2.015
  124MYC    C1924843   2.996   5.368   1.816
  124MYC    H3224844   2.935   5.447   1.858
  124MYC    H3324845   2.963   5.347   1.715
  124MYC    C1624846   3.089   5.126   1.888
  124MYC    H2824847   3.186   5.092   1.926
  124MYC    H2924848   3.095   5.112   1.779
  124MYC    C1524849   2.983   5.030   1.944
  124MYC    H2624850   3.004   4.926   1.913
  124MYC    H2724851   2.887   5.058   1.900
  124MYC    C1424852   2.957   5.030   2.095
  124MYC    H2424853   2.935   5.131   2.132
  124MYC    H2524854   3.047   5.013   2.154
  124MYC    C1324855   2.838   4.938   2.129
  124MYC    H2224856   2.848   4.839   2.082
  124MYC    H2324857   2.744   4.971   2.084
  124MYC    C1224858   2.806   4.929   2.279
  124MYC    H2024859   2.700   4.901   2.285
  124MYC    H2124860   2.810   5.029   2.325
  124MYC    C1124861   2.891   4.823   2.351
  124MYC    H1824862   2.997   4.831   2.322
  124MYC    H1924863   2.851   4.727   2.316
  124MYC    C1024864   2.887   4.824   2.504
  124MYC    H1624865   2.924   4.728   2.543
  124MYC    H1724866   2.783   4.811   2.536
  124MYC     C924867   2.956   4.944   2.573
  124MYC    H1424868   2.892   5.033   2.573
  124MYC    H1524869   3.049   4.967   2.519
  124MYC     C824870   2.991   4.898   2.716
  124MYC    H1224871   3.057   4.811   2.715
  124MYC    H1324872   2.893   4.870   2.757
  124MYC     C724873   3.060   5.002   2.806
  124MYC    H1024874   2.986   5.077   2.837
  124MYC    H1124875   3.132   5.068   2.756
  124MYC     C624876   3.143   4.950   2.924
  124MYC     H824877   3.235   4.906   2.885
  124MYC     H924878   3.078   4.886   2.986
  124MYC     C524879   3.195   5.065   3.012
  124MYC     H624880   3.112   5.131   3.040
  124MYC     H724881   3.262   5.134   2.960
  124MYC     C424882   3.268   5.014   3.137
  124MYC     H424883   3.328   5.096   3.180
  124MYC     H524884   3.354   4.954   3.107
  124MYC     C224885   3.190   4.955   3.256
  124MYC     H224886   3.209   5.019   3.343
  124MYC     O324887   3.050   4.975   3.238
  124MYC     H324888   3.014   4.931   3.159
  124MYC     C124889   3.226   4.809   3.286
  124MYC     H124890   3.333   4.800   3.304
  124MYC    C8124891   3.178   4.717   3.174
  124MYC    O8224892   3.070   4.661   3.179
  124MYC    O8324893   3.277   4.681   3.090
  124MYC   6H1524894   3.259   4.601   3.038
  124MYC    C2024895   3.162   4.763   3.418
  124MYC    H3424896   3.053   4.777   3.411
  124MYC    H3524897   3.190   4.660   3.441
  124MYC    C2124898   3.218   4.840   3.538
  124MYC    H3624899   3.328   4.832   3.538
  124MYC    H3724900   3.186   4.944   3.529
  124MYC    C2224901   3.169   4.783   3.672
  124MYC    H3824902   3.060   4.768   3.667
  124MYC    H3924903   3.209   4.682   3.688
  124MYC    C2324904   3.200   4.865   3.798
  124MYC    H4024905   3.308   4.856   3.810
  124MYC    H4124906   3.182   4.973   3.789
  124MYC    C2424907   3.124   4.812   3.921
  124MYC    H4224908   3.015   4.820   3.906
  124MYC    H4324909   3.135   4.703   3.925
  124MYC    C2524910   3.168   4.881   4.051
  124MYC    H4424911   3.273   4.855   4.071
  124MYC    H4524912   3.172   4.990   4.041
  124MYC    C2624913   3.070   4.839   4.162
  124MYC    H4624914   2.972   4.871   4.122
  124MYC    H4724915   3.058   4.730   4.163
  124MYC    C2724916   3.097   4.903   4.299
  124MYC    H4824917   3.203   4.897   4.326
  124MYC    H4924918   3.087   5.011   4.281
  124MYC    C2824919   3.003   4.854   4.410
  124MYC    H5024920   2.900   4.869   4.376
  124MYC    H5124921   3.011   4.746   4.426
  124MYC    C2924922   3.037   4.937   4.536
  124MYC    H5224923   3.140   4.924   4.572
  124MYC    H5324924   3.023   5.043   4.512
  124MYC    C3024925   2.947   4.892   4.652
  124MYC    H5424926   2.862   4.960   4.659
  124MYC    H5524927   2.909   4.790   4.636
  124MYC    C3124928   3.014   4.885   4.791
  124MYC    H5624929   3.097   4.814   4.783
  124MYC    H5724930   3.060   4.982   4.810
  124MYC    C3224931   2.926   4.847   4.911
  124MYC    H5824932   2.870   4.939   4.930
  124MYC    H5924933   2.858   4.765   4.886
  124MYC    C3324934   3.007   4.828   5.041
  124MYC    H6024935   3.080   4.754   5.005
  124MYC    H6124936   3.052   4.925   5.062
  124MYC    C3424937   2.923   4.769   5.155
  124MYC    H6224938   2.835   4.835   5.168
  124MYC    H6324939   2.892   4.666   5.136
  124MYC    C3524940   3.006   4.777   5.284
  124MYC    H6424941   3.099   4.720   5.269
  124MYC    H6524942   3.029   4.883   5.299
  124MYC    C3624943   2.930   4.724   5.407
  124MYC    H6624944   2.845   4.788   5.433
  124MYC    H6724945   2.891   4.624   5.383
  124MYC    C3724946   3.028   4.715   5.526
  124MYC    H6824947   3.101   4.638   5.499
  124MYC    H6924948   3.087   4.806   5.533
  124MYC    C3824949   2.966   4.676   5.661
  124MYC    H7024950   2.875   4.736   5.674
  124MYC    H7124951   2.931   4.572   5.666
  124MYC    C3924952   3.057   4.716   5.779
  124MYC    H7224953   3.154   4.665   5.770
  124MYC    H7324954   3.080   4.823   5.777
  124MYC    C4024955   2.999   4.682   5.917
  124MYC    H7424956   2.916   4.753   5.929
  124MYC    H7524957   2.952   4.585   5.936
  124MYC    C4124958   3.097   4.714   6.031
  124MYC    H7624959   3.197   4.672   6.011
  124MYC    H7724960   3.113   4.822   6.027
  124MYC    C4224961   3.060   4.651   6.166
  124MYC    H7824962   2.972   4.700   6.208
  124MYC    H7924963   3.033   4.546   6.146
  124MYC    C4324964   3.169   4.659   6.275
  124MYC    H8024965   3.175   4.566   6.333
  124MYC    H8124966   3.152   4.743   6.343
  124MYC    H8224967   3.270   4.680   6.236
  125MYC   5H1524968   3.429   6.240   6.229
  125MYC    C8024969   3.358   6.254   6.147
  125MYC   3H1524970   3.295   6.165   6.144
  125MYC   4H1524971   3.297   6.343   6.170
  125MYC    C7924972   3.432   6.269   6.013
  125MYC   1H1524973   3.498   6.182   6.008
  125MYC   2H1524974   3.492   6.360   6.004
  125MYC    C7824975   3.330   6.273   5.897
  125MYC   9H1424976   3.276   6.369   5.899
  125MYC   0H1524977   3.259   6.190   5.898
  125MYC    C7724978   3.395   6.292   5.759
  125MYC   7H1424979   3.475   6.216   5.751
  125MYC   8H1424980   3.441   6.391   5.763
  125MYC    C7624981   3.296   6.261   5.646
  125MYC   5H1424982   3.208   6.325   5.663
  125MYC   6H1424983   3.268   6.155   5.656
  125MYC    C7524984   3.367   6.289   5.513
  125MYC   3H1424985   3.459   6.230   5.500
  125MYC   4H1424986   3.399   6.394   5.510
  125MYC    C7424987   3.280   6.262   5.389
  125MYC   1H1424988   3.195   6.331   5.392
  125MYC   2H1424989   3.248   6.157   5.382
  125MYC    C7324990   3.362   6.296   5.264
  125MYC   9H1324991   3.444   6.225   5.249
  125MYC   0H1424992   3.407   6.396   5.268
  125MYC    C7224993   3.277   6.294   5.136
  125MYC   7H1324994   3.205   6.376   5.129
  125MYC   8H1324995   3.225   6.197   5.132
  125MYC    C7124996   3.371   6.291   5.014
  125MYC   5H1324997   3.422   6.194   5.007
  125MYC   6H1324998   3.447   6.370   5.013
  125MYC    C7024999   3.296   6.311   4.881
  125MYC   3H1325000   3.261   6.414   4.867
  125MYC   4H1325001   3.198   6.262   4.874
  125MYC    C6925002   3.376   6.256   4.761
  125MYC   1H1325003   3.391   6.147   4.757
  125MYC   2H1325004   3.472   6.307   4.749
  125MYC    C6825005   3.290   6.282   4.636
  125MYC   9H1225006   3.287   6.389   4.614
  125MYC   0H1325007   3.184   6.255   4.649
  125MYC    C6725008   3.341   6.212   4.509
  125MYC   7H1225009   3.339   6.102   4.515
  125MYC   8H1225010   3.443   6.245   4.488
  125MYC    C6625011   3.258   6.256   4.388
  125MYC   5H1225012   3.230   6.362   4.389
  125MYC   6H1225013   3.160   6.207   4.394
  125MYC    C6525014   3.329   6.229   4.254
  125MYC   3H1225015   3.378   6.131   4.249
  125MYC   4H1225016   3.413   6.298   4.244
  125MYC    C6425017   3.224   6.233   4.140
  125MYC   1H1225018   3.198   6.338   4.124
  125MYC   2H1225019   3.133   6.181   4.172
  125MYC    C6325020   3.277   6.179   4.006
  125MYC   9H1125021   3.303   6.074   4.019
  125MYC   0H1225022   3.371   6.230   3.982
  125MYC    C6225023   3.178   6.189   3.889
  125MYC   7H1125024   3.157   6.290   3.852
  125MYC   8H1125025   3.083   6.148   3.924
  125MYC    C6125026   3.236   6.118   3.766
  125MYC   5H1125027   3.264   6.017   3.797
  125MYC   6H1125028   3.336   6.160   3.749
  125MYC    C6025029   3.152   6.122   3.639
  125MYC   4H1125030   3.063   6.184   3.652
  125MYC    C5825031   3.218   6.123   3.504
  125MYC   1H1125032   3.327   6.121   3.502
  125MYC    C5925033   3.140   6.002   3.549
  125MYC   2H1125034   3.044   5.980   3.504
  125MYC   3H1125035   3.204   5.914   3.560
  125MYC    C5725036   3.156   6.216   3.401
  125MYC   9H1025037   3.193   6.319   3.400
  125MYC   0H1125038   3.049   6.210   3.425
  125MYC    C5625039   3.171   6.157   3.260
  125MYC   7H1025040   3.124   6.058   3.265
  125MYC   8H1025041   3.278   6.143   3.241
  125MYC    C5525042   3.114   6.245   3.147
  125MYC   5H1025043   3.177   6.331   3.121
  125MYC   6H1025044   3.020   6.285   3.186
  125MYC    C5425045   3.081   6.172   3.016
  125MYC   3H1025046   2.993   6.219   2.970
  125MYC   4H1025047   3.040   6.072   3.036
  125MYC    C5325048   3.196   6.191   2.914
  125MYC   1H1025049   3.284   6.132   2.941
  125MYC   2H1025050   3.222   6.297   2.920
  125MYC    C5225051   3.148   6.161   2.771
  125MYC    H9925052   3.048   6.201   2.750
  125MYC   0H1025053   3.137   6.052   2.772
  125MYC    C5125054   3.254   6.211   2.672
  125MYC    H9725055   3.346   6.151   2.670
  125MYC    H9825056   3.281   6.311   2.707
  125MYC    C5025057   3.207   6.211   2.525
  125MYC    H9525058   3.127   6.284   2.509
  125MYC    H9625059   3.165   6.112   2.505
  125MYC    C4925060   3.318   6.227   2.420
  125MYC    H9325061   3.390   6.145   2.420
  125MYC    H9425062   3.371   6.321   2.443
  125MYC    C4825063   3.262   6.237   2.277
  125MYC    H9125064   3.178   6.307   2.279
  125MYC    H9225065   3.217   6.138   2.258
  125MYC    C4725066   3.364   6.266   2.165
  125MYC    H8925067   3.443   6.189   2.170
  125MYC    H9025068   3.405   6.366   2.183
  125MYC    C4625069   3.289   6.259   2.032
  125MYC    H8725070   3.214   6.339   2.029
  125MYC    H8825071   3.231   6.166   2.026
  125MYC    C4525072   3.381   6.272   1.910
  125MYC    H8525073   3.435   6.176   1.907
  125MYC    H8625074   3.463   6.341   1.934
  125MYC    C4425075   3.314   6.314   1.778
  125MYC    H8325076   3.389   6.369   1.720
  125MYC    H8425077   3.233   6.386   1.796
  125MYC    C1825078   3.256   6.193   1.705
  125MYC    H3125079   3.327   6.132   1.649
  125MYC    C1725080   3.136   6.115   1.750
  125MYC    H3025081   3.099   6.148   1.847
  125MYC    C1925082   3.124   6.211   1.634
  125MYC    H3225083   3.067   6.299   1.659
  125MYC    H3325084   3.131   6.183   1.529
  125MYC    C1625085   3.140   5.963   1.735
  125MYC    H2825086   3.225   5.915   1.785
  125MYC    H2925087   3.153   5.937   1.629
  125MYC    C1525088   3.005   5.910   1.787
  125MYC    H2625089   2.997   5.805   1.756
  125MYC    H2725090   2.921   5.957   1.733
  125MYC    C1425091   2.978   5.908   1.938
  125MYC    H2425092   2.872   5.929   1.954
  125MYC    H2525093   3.039   5.982   1.993
  125MYC    C1325094   3.006   5.771   2.001
  125MYC    H2225095   3.114   5.754   2.001
  125MYC    H2325096   2.949   5.694   1.947
  125MYC    C1225097   2.954   5.769   2.145
  125MYC    H2025098   2.849   5.795   2.161
  125MYC    H2125099   3.009   5.835   2.214
  125MYC    C1125100   2.987   5.632   2.206
  125MYC    H1825101   3.096   5.630   2.212
  125MYC    H1925102   2.944   5.561   2.134
  125MYC    C1025103   2.923   5.616   2.345
  125MYC    H1625104   2.935   5.511   2.376
  125MYC    H1725105   2.815   5.633   2.346
  125MYC     C925106   2.992   5.698   2.455
  125MYC    H1425107   2.976   5.806   2.445
  125MYC    H1525108   3.100   5.678   2.444
  125MYC     C825109   2.944   5.659   2.596
  125MYC    H1225110   2.981   5.557   2.612
  125MYC    H1325111   2.835   5.653   2.591
  125MYC     C725112   2.992   5.747   2.713
  125MYC    H1025113   2.940   5.844   2.710
  125MYC    H1125114   3.098   5.768   2.695
  125MYC     C625115   2.977   5.678   2.850
  125MYC     H825116   3.022   5.579   2.837
  125MYC     H925117   2.871   5.669   2.877
  125MYC     C525118   3.053   5.757   2.958
  125MYC     H625119   2.994   5.846   2.979
  125MYC     H725120   3.148   5.801   2.924
  125MYC     C425121   3.068   5.665   3.080
  125MYC     H425122   3.161   5.696   3.130
  125MYC     H525123   3.093   5.565   3.041
  125MYC     C225124   2.951   5.660   3.180
  125MYC     H225125   2.976   5.747   3.243
  125MYC     O325126   2.819   5.670   3.128
  125MYC     H325127   2.778   5.596   3.176
  125MYC     C125128   2.949   5.535   3.269
  125MYC     H125129   3.048   5.494   3.290
  125MYC    C8125130   2.874   5.422   3.201
  125MYC    O8225131   2.763   5.387   3.236
  125MYC    O8325132   2.957   5.337   3.135
  125MYC   6H1525133   2.908   5.257   3.110
  125MYC    C2025134   2.889   5.564   3.408
  125MYC    H3425135   2.796   5.622   3.399
  125MYC    H3525136   2.871   5.466   3.452
  125MYC    C2125137   2.990   5.634   3.501
  125MYC    H3625138   3.078   5.568   3.504
  125MYC    H3725139   3.021   5.731   3.460
  125MYC    C2225140   2.931   5.652   3.642
  125MYC    H3825141   2.846   5.721   3.633
  125MYC    H3925142   2.883   5.561   3.681
  125MYC    C2325143   3.022   5.711   3.751
  125MYC    H4025144   3.117   5.657   3.760
  125MYC    H4125145   3.060   5.810   3.724
  125MYC    C2425146   2.958   5.720   3.890
  125MYC    H4225147   2.883   5.800   3.893
  125MYC    H4325148   2.898   5.630   3.906
  125MYC    C2525149   3.053   5.736   4.010
  125MYC    H4425150   3.124   5.652   4.018
  125MYC    H4525151   3.115   5.822   3.983
  125MYC    C2625152   2.970   5.750   4.139
  125MYC    H4625153   2.879   5.810   4.134
  125MYC    H4725154   2.942   5.649   4.171
  125MYC    C2725155   3.051   5.803   4.258
  125MYC    H4825156   3.140   5.742   4.274
  125MYC    H4925157   3.083   5.908   4.248
  125MYC    C2825158   2.966   5.797   4.387
  125MYC    H5025159   2.877   5.858   4.371
  125MYC    H5125160   2.937   5.692   4.401
  125MYC    C2925161   3.039   5.824   4.519
  125MYC    H5225162   3.123   5.754   4.519
  125MYC    H5325163   3.071   5.929   4.521
  125MYC    C3025164   2.955   5.811   4.647
  125MYC    H5425165   2.859   5.863   4.649
  125MYC    H5525166   2.927   5.705   4.650
  125MYC    C3125167   3.044   5.851   4.766
  125MYC    H5625168   3.121   5.774   4.782
  125MYC    H5725169   3.103   5.942   4.755
  125MYC    C3225170   2.966   5.850   4.899
  125MYC    H5825171   2.882   5.921   4.897
  125MYC    H5925172   2.919   5.751   4.909
  125MYC    C3325173   3.060   5.873   5.019
  125MYC    H6025174   3.150   5.811   5.013
  125MYC    H6125175   3.093   5.977   5.017
  125MYC    C3425176   2.991   5.842   5.152
  125MYC    H6225177   2.890   5.884   5.153
  125MYC    H6325178   2.969   5.735   5.163
  125MYC    C3525179   3.067   5.895   5.275
  125MYC    H6425180   3.171   5.862   5.263
  125MYC    H6525181   3.073   6.005   5.267
  125MYC    C3625182   3.008   5.846   5.408
  125MYC    H6625183   2.899   5.857   5.399
  125MYC    H6725184   3.026   5.739   5.421
  125MYC    C3725185   3.054   5.924   5.532
  125MYC    H6825186   3.162   5.904   5.539
  125MYC    H6925187   3.039   6.032   5.524
  125MYC    C3825188   2.992   5.866   5.661
  125MYC    H7025189   2.884   5.875   5.644
  125MYC    H7125190   3.012   5.758   5.661
  125MYC    C3925191   3.048   5.933   5.787
  125MYC    H7225192   3.156   5.945   5.769
  125MYC    H7325193   3.009   6.034   5.808
  125MYC    C4025194   3.024   5.857   5.918
  125MYC    H7425195   2.919   5.827   5.930
  125MYC    H7525196   3.083   5.765   5.910
  125MYC    C4125197   3.064   5.936   6.043
  125MYC    H7625198   3.168   5.966   6.026
  125MYC    H7725199   3.000   6.025   6.037
  125MYC    C4225200   3.039   5.854   6.171
  125MYC    H7825201   2.933   5.826   6.175
  125MYC    H7925202   3.110   5.770   6.176
  125MYC    C4325203   3.078   5.942   6.291
  125MYC    H8025204   3.124   5.883   6.371
  125MYC    H8125205   3.000   6.007   6.332
  125MYC    H8225206   3.153   6.018   6.264
  126MYC   5H1525207   3.540   0.436   6.158
  126MYC    C8025208   3.643   0.432   6.123
  126MYC   3H1525209   3.704   0.470   6.206
  126MYC   4H1525210   3.661   0.330   6.086
  126MYC    C7925211   3.657   0.531   6.007
  126MYC   1H1525212   3.726   0.616   6.012
  126MYC   2H1525213   3.558   0.575   5.985
  126MYC    C7825214   3.699   0.458   5.878
  126MYC   9H1425215   3.634   0.371   5.862
  126MYC   0H1525216   3.802   0.422   5.892
  126MYC    C7725217   3.704   0.553   5.757
  126MYC   7H1425218   3.763   0.641   5.789
  126MYC   8H1425219   3.605   0.596   5.736
  126MYC    C7625220   3.766   0.484   5.635
  126MYC   5H1425221   3.692   0.406   5.610
  126MYC   6H1425222   3.861   0.434   5.659
  126MYC    C7525223   3.771   0.582   5.517
  126MYC   3H1425224   3.856   0.650   5.531
  126MYC   4H1425225   3.680   0.643   5.515
  126MYC    C7425226   3.784   0.507   5.383
  126MYC   1H1425227   3.696   0.443   5.370
  126MYC   2H1425228   3.873   0.444   5.396
  126MYC    C7325229   3.792   0.603   5.263
  126MYC   9H1325230   3.862   0.687   5.271
  126MYC   0H1425231   3.695   0.654   5.256
  126MYC    C7225232   3.830   0.522   5.138
  126MYC   7H1325233   3.746   0.451   5.131
  126MYC   8H1325234   3.920   0.459   5.146
  126MYC    C7125235   3.848   0.611   5.014
  126MYC   5H1325236   3.934   0.677   5.028
  126MYC   6H1325237   3.761   0.677   5.005
  126MYC    C7025238   3.865   0.530   4.884
  126MYC   3H1325239   3.767   0.482   4.869
  126MYC   4H1325240   3.937   0.452   4.912
  126MYC    C6925241   3.907   0.626   4.772
  126MYC   1H1325242   4.016   0.640   4.771
  126MYC   2H1325243   3.862   0.725   4.789
  126MYC    C6825244   3.879   0.579   4.628
  126MYC   9H1225245   3.774   0.553   4.614
  126MYC   0H1325246   3.922   0.478   4.625
  126MYC    C6725247   3.928   0.673   4.517
  126MYC   7H1225248   4.030   0.707   4.537
  126MYC   8H1225249   3.860   0.758   4.504
  126MYC    C6625250   3.923   0.600   4.382
  126MYC   5H1225251   3.822   0.557   4.376
  126MYC   6H1225252   3.986   0.510   4.382
  126MYC    C6525253   3.944   0.700   4.267
  126MYC   3H1225254   4.047   0.738   4.277
  126MYC   4H1225255   3.869   0.780   4.276
  126MYC    C6425256   3.918   0.630   4.133
  126MYC   1H1225257   3.811   0.609   4.128
  126MYC   2H1225258   3.975   0.537   4.121
  126MYC    C6325259   3.958   0.712   4.009
  126MYC   9H1125260   4.064   0.695   3.985
  126MYC   0H1225261   3.951   0.817   4.037
  126MYC    C6225262   3.861   0.688   3.892
  126MYC   7H1125263   3.758   0.713   3.919
  126MYC   8H1125264   3.866   0.583   3.860
  126MYC    C6125265   3.894   0.781   3.774
  126MYC   5H1125266   3.995   0.756   3.738
  126MYC   6H1125267   3.899   0.883   3.814
  126MYC    C6025268   3.797   0.756   3.660
  126MYC   4H1125269   3.694   0.784   3.683
  126MYC    C5825270   3.838   0.775   3.516
  126MYC   1H1125271   3.942   0.805   3.504
  126MYC    C5925272   3.816   0.636   3.570
  126MYC   2H1125273   3.727   0.580   3.544
  126MYC   3H1125274   3.906   0.575   3.572
  126MYC    C5725275   3.745   0.836   3.412
  126MYC   9H1025276   3.746   0.945   3.414
  126MYC   0H1125277   3.643   0.796   3.425
  126MYC    C5625278   3.795   0.778   3.279
  126MYC   7H1025279   3.802   0.669   3.289
  126MYC   8H1025280   3.900   0.803   3.259
  126MYC    C5525281   3.705   0.836   3.168
  126MYC   5H1025282   3.738   0.938   3.148
  126MYC   6H1025283   3.605   0.849   3.211
  126MYC    C5425284   3.717   0.756   3.037
  126MYC   3H1025285   3.625   0.697   3.024
  126MYC   4H1025286   3.792   0.679   3.060
  126MYC    C5325287   3.752   0.838   2.912
  126MYC   1H1025288   3.859   0.860   2.915
  126MYC   2H1025289   3.695   0.928   2.884
  126MYC    C5225290   3.736   0.749   2.787
  126MYC    H9925291   3.628   0.751   2.772
  126MYC   0H1025292   3.776   0.649   2.810
  126MYC    C5125293   3.812   0.810   2.668
  126MYC    H9725294   3.920   0.815   2.681
  126MYC    H9825295   3.775   0.912   2.649
  126MYC    C5025296   3.786   0.719   2.547
  126MYC    H9525297   3.681   0.686   2.545
  126MYC    H9625298   3.851   0.632   2.563
  126MYC    C4925299   3.827   0.793   2.419
  126MYC    H9325300   3.931   0.830   2.423
  126MYC    H9425301   3.763   0.882   2.413
  126MYC    C4825302   3.811   0.708   2.292
  126MYC    H9125303   3.708   0.675   2.278
  126MYC    H9225304   3.877   0.620   2.296
  126MYC    C4725305   3.846   0.791   2.167
  126MYC    H8925306   3.932   0.855   2.191
  126MYC    H9025307   3.756   0.850   2.144
  126MYC    C4625308   3.886   0.716   2.039
  126MYC    H8725309   3.949   0.628   2.059
  126MYC    H8825310   3.943   0.780   1.970
  126MYC    C4525311   3.761   0.677   1.959
  126MYC    H8525312   3.717   0.760   1.903
  126MYC    H8625313   3.683   0.651   2.031
  126MYC    C4425314   3.770   0.551   1.871
  126MYC    H8325315   3.688   0.560   1.799
  126MYC    H8425316   3.756   0.457   1.927
  126MYC    C1825317   3.898   0.534   1.790
  126MYC    H3125318   3.984   0.570   1.847
  126MYC    C1725319   3.910   0.414   1.700
  126MYC    H3025320   3.819   0.362   1.671
  126MYC    C1925321   3.907   0.553   1.641
  126MYC    H3225322   3.816   0.571   1.585
  126MYC    H3325323   3.996   0.584   1.587
  126MYC    C1625324   4.038   0.332   1.693
  126MYC    H2825325   4.129   0.392   1.704
  126MYC    H2925326   4.043   0.294   1.590
  126MYC    C1525327   4.026   0.211   1.787
  126MYC    H2625328   4.064   0.121   1.737
  126MYC    H2725329   3.919   0.197   1.805
  126MYC    C1425330   4.094   0.233   1.923
  126MYC    H2425331   4.063   0.334   1.953
  126MYC    H2525332   4.203   0.228   1.908
  126MYC    C1325333   4.062   0.135   2.037
  126MYC    H2225334   4.158   0.103   2.080
  126MYC    H2325335   3.997   0.050   2.011
  126MYC    C1225336   3.998   0.202   2.159
  126MYC    H2025337   3.902   0.246   2.129
  126MYC    H2125338   4.055   0.287   2.200
  126MYC    C1125339   3.975   0.107   2.278
  126MYC    H1825340   4.071   0.074   2.320
  126MYC    H1925341   3.914   0.025   2.239
  126MYC    C1025342   3.896   0.166   2.396
  126MYC    H1625343   3.801   0.114   2.411
  126MYC    H1725344   3.873   0.271   2.372
  126MYC     C925345   3.973   0.177   2.528
  126MYC    H1425346   4.068   0.232   2.526
  126MYC    H1525347   3.986   0.072   2.557
  126MYC     C825348   3.886   0.250   2.632
  126MYC    H1225349   3.801   0.182   2.640
  126MYC    H1325350   3.859   0.348   2.590
  126MYC     C725351   3.946   0.286   2.769
  126MYC    H1025352   4.009   0.375   2.755
  126MYC    H1125353   4.015   0.204   2.795
  126MYC     C625354   3.839   0.297   2.878
  126MYC     H825355   3.791   0.199   2.888
  126MYC     H925356   3.763   0.360   2.831
  126MYC     C525357   3.877   0.356   3.015
  126MYC     H625358   3.787   0.391   3.067
  126MYC     H725359   3.946   0.441   3.008
  126MYC     C425360   3.945   0.254   3.107
  126MYC     H425361   3.999   0.324   3.172
  126MYC     H525362   4.012   0.187   3.050
  126MYC     C225363   3.853   0.171   3.197
  126MYC     H225364   3.815   0.237   3.276
  126MYC     O325365   3.750   0.106   3.124
  126MYC     H325366   3.671   0.135   3.174
  126MYC     C125367   3.926   0.067   3.283
  126MYC     H125368   3.998   0.126   3.341
  126MYC    C8125369   3.997  -0.040   3.200
  126MYC    O8225370   3.966  -0.076   3.088
  126MYC    O8325371   4.114  -0.077   3.256
  126MYC   6H1525372   4.145  -0.143   3.191
  126MYC    C2025373   3.834   0.005   3.389
  126MYC    H3425374   3.732  -0.018   3.356
  126MYC    H3525375   3.883  -0.092   3.405
  126MYC    C2125376   3.825   0.074   3.526
  126MYC    H3625377   3.800   0.180   3.515
  126MYC    H3725378   3.747   0.026   3.587
  126MYC    C2225379   3.939   0.055   3.628
  126MYC    H3825380   3.959  -0.048   3.660
  126MYC    H3925381   4.033   0.095   3.590
  126MYC    C2325382   3.894   0.124   3.758
  126MYC    H4025383   3.865   0.226   3.733
  126MYC    H4125384   3.809   0.069   3.800
  126MYC    C2425385   4.010   0.134   3.859
  126MYC    H4225386   4.050   0.033   3.873
  126MYC    H4325387   4.088   0.191   3.807
  126MYC    C2525388   3.968   0.204   3.989
  126MYC    H4425389   3.945   0.311   3.976
  126MYC    H4525390   3.877   0.160   4.030
  126MYC    C2625391   4.070   0.183   4.102
  126MYC    H4625392   4.097   0.077   4.110
  126MYC    H4725393   4.164   0.237   4.087
  126MYC    C2725394   4.004   0.217   4.237
  126MYC    H4825395   3.997   0.325   4.253
  126MYC    H4925396   3.903   0.174   4.245
  126MYC    C2825397   4.081   0.162   4.359
  126MYC    H5025398   4.123   0.064   4.337
  126MYC    H5125399   4.167   0.223   4.388
  126MYC    C2925400   3.991   0.161   4.483
  126MYC    H5225401   3.950   0.259   4.510
  126MYC    H5325402   3.898   0.103   4.473
  126MYC    C3025403   4.066   0.112   4.608
  126MYC    H5425404   4.085   0.006   4.590
  126MYC    H5525405   4.157   0.173   4.621
  126MYC    C3125406   3.971   0.122   4.729
  126MYC    H5625407   3.920   0.219   4.734
  126MYC    H5725408   3.890   0.047   4.731
  126MYC    C3225409   4.061   0.118   4.854
  126MYC    H5825410   4.137   0.040   4.842
  126MYC    H5925411   4.114   0.213   4.864
  126MYC    C3325412   3.990   0.089   4.987
  126MYC    H6025413   3.896   0.145   4.990
  126MYC    H6125414   3.971  -0.019   4.986
  126MYC    C3425415   4.064   0.123   5.117
  126MYC    H6225416   4.171   0.104   5.101
  126MYC    H6325417   4.065   0.232   5.130
  126MYC    C3525418   4.016   0.052   5.245
  126MYC    H6425419   3.908   0.031   5.246
  126MYC    H6525420   4.068  -0.044   5.257
  126MYC    C3625421   4.033   0.139   5.370
  126MYC    H6625422   4.138   0.167   5.388
  126MYC    H6725423   3.977   0.231   5.351
  126MYC    C3725424   3.978   0.075   5.499
  126MYC    H6825425   3.875   0.036   5.495
  126MYC    H6925426   4.040  -0.011   5.527
  126MYC    C3825427   3.990   0.182   5.609
  126MYC    H7025428   4.087   0.232   5.599
  126MYC    H7125429   3.905   0.250   5.598
  126MYC    C3925430   4.000   0.114   5.746
  126MYC    H7225431   3.902   0.073   5.775
  126MYC    H7325432   4.072   0.031   5.747
  126MYC    C4025433   4.038   0.220   5.850
  126MYC    H7425434   4.144   0.250   5.852
  126MYC    H7525435   3.995   0.313   5.811
  126MYC    C4125436   3.985   0.190   5.991
  126MYC    H7625437   3.876   0.188   5.998
  126MYC    H7725438   4.018   0.087   6.012
  126MYC    C4225439   4.038   0.277   6.106
  126MYC    H7825440   4.148   0.269   6.113
  126MYC    H7925441   4.009   0.380   6.081
  126MYC    C4325442   3.982   0.229   6.241
  126MYC    H8025443   3.996   0.302   6.322
  126MYC    H8125444   4.020   0.131   6.271
  126MYC    H8225445   3.873   0.232   6.232
  127MYC   5H1525446   4.285   1.141   6.294
  127MYC    C8025447   4.238   1.117   6.197
  127MYC   3H1525448   4.188   1.022   6.219
  127MYC   4H1525449   4.163   1.193   6.172
  127MYC    C7925450   4.343   1.096   6.087
  127MYC   1H1525451   4.406   1.010   6.112
  127MYC   2H1525452   4.408   1.181   6.062
  127MYC    C7825453   4.272   1.078   5.952
  127MYC   9H1425454   4.248   1.180   5.919
  127MYC   0H1525455   4.180   1.020   5.965
  127MYC    C7725456   4.359   1.029   5.835
  127MYC   7H1425457   4.395   0.929   5.862
  127MYC   8H1425458   4.447   1.093   5.822
  127MYC    C7625459   4.269   1.026   5.710
  127MYC   5H1425460   4.249   1.130   5.683
  127MYC   6H1425461   4.172   0.980   5.732
  127MYC    C7525462   4.333   0.962   5.585
  127MYC   3H1425463   4.349   0.859   5.616
  127MYC   4H1425464   4.425   1.012   5.554
  127MYC    C7425465   4.233   0.963   5.468
  127MYC   1H1425466   4.192   1.064   5.459
  127MYC   2H1425467   4.155   0.887   5.484
  127MYC    C7325468   4.295   0.935   5.330
  127MYC   9H1325469   4.336   0.833   5.340
  127MYC   0H1425470   4.373   1.011   5.313
  127MYC    C7225471   4.194   0.946   5.215
  127MYC   7H1325472   4.145   1.045   5.216
  127MYC   8H1325473   4.114   0.872   5.228
  127MYC    C7125474   4.265   0.937   5.079
  127MYC   5H1325475   4.320   0.842   5.071
  127MYC   6H1325476   4.336   1.020   5.078
  127MYC    C7025477   4.172   0.958   4.958
  127MYC   3H1325478   4.127   1.058   4.961
  127MYC   4H1325479   4.086   0.891   4.965
  127MYC    C6925480   4.248   0.943   4.825
  127MYC   1H1325481   4.280   0.838   4.817
  127MYC   2H1325482   4.338   1.003   4.837
  127MYC    C6825483   4.170   0.984   4.699
  127MYC   9H1225484   4.147   1.090   4.716
  127MYC   0H1325485   4.076   0.930   4.684
  127MYC    C6725486   4.247   0.966   4.567
  127MYC   7H1225487   4.250   0.861   4.536
  127MYC   8H1225488   4.350   0.996   4.589
  127MYC    C6625489   4.194   1.052   4.450
  127MYC   5H1225490   4.208   1.156   4.482
  127MYC   6H1225491   4.086   1.043   4.430
  127MYC    C6525492   4.265   1.013   4.320
  127MYC   3H1225493   4.248   0.906   4.302
  127MYC   4H1225494   4.371   1.029   4.342
  127MYC    C6425495   4.229   1.107   4.203
  127MYC   1H1225496   4.276   1.206   4.213
  127MYC   2H1225497   4.123   1.130   4.218
  127MYC    C6325498   4.237   1.037   4.066
  127MYC   9H1125499   4.161   0.958   4.062
  127MYC   0H1225500   4.335   0.989   4.054
  127MYC    C6225501   4.215   1.132   3.947
  127MYC   7H1125502   4.290   1.211   3.951
  127MYC   8H1125503   4.114   1.174   3.946
  127MYC    C6125504   4.230   1.043   3.823
  127MYC   5H1125505   4.154   0.965   3.815
  127MYC   6H1125506   4.334   1.008   3.822
  127MYC    C6025507   4.230   1.122   3.693
  127MYC   4H1125508   4.324   1.173   3.672
  127MYC    C5825509   4.155   1.057   3.579
  127MYC   1H1125510   4.090   0.973   3.602
  127MYC    C5925511   4.104   1.185   3.640
  127MYC   2H1125512   4.106   1.278   3.583
  127MYC   3H1125513   4.009   1.182   3.693
  127MYC    C5725514   4.228   1.058   3.446
  127MYC   9H1025515   4.274   0.960   3.429
  127MYC   0H1125516   4.311   1.130   3.446
  127MYC    C5625517   4.135   1.098   3.329
  127MYC   7H1025518   4.116   1.206   3.336
  127MYC   8H1025519   4.036   1.053   3.337
  127MYC    C5525520   4.192   1.048   3.195
  127MYC   5H1025521   4.204   0.939   3.188
  127MYC   6H1025522   4.292   1.092   3.187
  127MYC    C5425523   4.113   1.092   3.071
  127MYC   3H1025524   4.107   1.200   3.087
  127MYC   4H1025525   4.011   1.053   3.057
  127MYC    C5325526   4.192   1.066   2.941
  127MYC   1H1025527   4.208   0.958   2.932
  127MYC   2H1025528   4.287   1.119   2.944
  127MYC    C5225529   4.113   1.097   2.813
  127MYC    H9925530   4.072   1.199   2.816
  127MYC   0H1025531   4.034   1.022   2.805
  127MYC    C5125532   4.204   1.086   2.689
  127MYC    H9725533   4.242   0.983   2.687
  127MYC    H9825534   4.275   1.166   2.710
  127MYC    C5025535   4.136   1.107   2.552
  127MYC    H9525536   4.093   1.207   2.546
  127MYC    H9625537   4.053   1.037   2.541
  127MYC    C4925538   4.225   1.082   2.429
  127MYC    H9325539   4.268   0.981   2.442
  127MYC    H9425540   4.312   1.148   2.424
  127MYC    C4825541   4.155   1.081   2.292
  127MYC    H9125542   4.129   1.187   2.276
  127MYC    H9225543   4.060   1.029   2.306
  127MYC    C4725544   4.236   1.039   2.168
  127MYC    H8925545   4.235   0.930   2.151
  127MYC    H9025546   4.344   1.055   2.179
  127MYC    C4625547   4.185   1.109   2.041
  127MYC    H8725548   4.195   1.218   2.046
  127MYC    H8825549   4.076   1.098   2.037
  127MYC    C4525550   4.247   1.055   1.911
  127MYC    H8525551   4.219   0.949   1.905
  127MYC    H8625552   4.356   1.064   1.909
  127MYC    C4425553   4.202   1.122   1.780
  127MYC    H8325554   4.271   1.075   1.708
  127MYC    H8425555   4.223   1.229   1.778
  127MYC    C1825556   4.061   1.087   1.736
  127MYC    H3125557   4.051   0.979   1.727
  127MYC    C1725558   3.936   1.158   1.781
  127MYC    H3025559   3.952   1.242   1.849
  127MYC    C1925560   3.981   1.170   1.638
  127MYC    H3225561   4.022   1.264   1.601
  127MYC    H3325562   3.909   1.123   1.572
  127MYC    C1625563   3.821   1.067   1.821
  127MYC    H2825564   3.854   0.982   1.883
  127MYC    H2925565   3.781   1.024   1.728
  127MYC    C1525566   3.701   1.135   1.889
  127MYC    H2625567   3.618   1.064   1.897
  127MYC    H2725568   3.662   1.222   1.835
  127MYC    C1425569   3.732   1.184   2.032
  127MYC    H2425570   3.825   1.242   2.037
  127MYC    H2525571   3.749   1.096   2.095
  127MYC    C1325572   3.616   1.270   2.085
  127MYC    H2225573   3.517   1.235   2.054
  127MYC    H2325574   3.623   1.371   2.043
  127MYC    C1225575   3.628   1.289   2.238
  127MYC    H2025576   3.736   1.290   2.253
  127MYC    H2125577   3.587   1.204   2.295
  127MYC    C1125578   3.563   1.419   2.289
  127MYC    H1825579   3.457   1.395   2.301
  127MYC    H1925580   3.591   1.502   2.223
  127MYC    C1025581   3.626   1.463   2.422
  127MYC    H1625582   3.610   1.569   2.444
  127MYC    H1725583   3.735   1.453   2.415
  127MYC     C925584   3.579   1.385   2.547
  127MYC    H1425585   3.603   1.280   2.525
  127MYC    H1525586   3.472   1.382   2.572
  127MYC     C825587   3.660   1.417   2.674
  127MYC    H1225588   3.656   1.524   2.698
  127MYC    H1325589   3.764   1.402   2.643
  127MYC     C725590   3.629   1.328   2.795
  127MYC    H1025591   3.626   1.222   2.767
  127MYC    H1125592   3.531   1.344   2.842
  127MYC     C625593   3.736   1.338   2.906
  127MYC     H825594   3.715   1.437   2.950
  127MYC     H925595   3.835   1.345   2.859
  127MYC     C525596   3.733   1.225   3.010
  127MYC     H625597   3.816   1.243   3.080
  127MYC     H725598   3.753   1.133   2.953
  127MYC     C425599   3.605   1.215   3.095
  127MYC     H425600   3.594   1.112   3.129
  127MYC     H525601   3.512   1.231   3.039
  127MYC     C225602   3.599   1.293   3.228
  127MYC     H225603   3.670   1.247   3.298
  127MYC     O325604   3.631   1.430   3.207
  127MYC     H325605   3.553   1.450   3.152
  127MYC     C125606   3.465   1.283   3.302
  127MYC     H125607   3.453   1.175   3.322
  127MYC    C8125608   3.341   1.336   3.231
  127MYC    O8225609   3.343   1.421   3.144
  127MYC    O8325610   3.227   1.266   3.254
  127MYC   6H1525611   3.169   1.304   3.186
  127MYC    C2025612   3.465   1.348   3.442
  127MYC    H3425613   3.500   1.452   3.442
  127MYC    H3525614   3.363   1.371   3.474
  127MYC    C2125615   3.539   1.260   3.544
  127MYC    H3625616   3.498   1.159   3.553
  127MYC    H3725617   3.646   1.252   3.520
  127MYC    C2225618   3.537   1.333   3.679
  127MYC    H3825619   3.560   1.440   3.670
  127MYC    H3925620   3.437   1.324   3.722
  127MYC    C2325621   3.644   1.267   3.768
  127MYC    H4025622   3.633   1.158   3.770
  127MYC    H4125623   3.742   1.285   3.722
  127MYC    C2425624   3.640   1.325   3.911
  127MYC    H4225625   3.656   1.433   3.902
  127MYC    H4325626   3.537   1.316   3.946
  127MYC    C2525627   3.741   1.283   4.020
  127MYC    H4425628   3.734   1.175   4.032
  127MYC    H4525629   3.845   1.294   3.986
  127MYC    C2625630   3.714   1.351   4.156
  127MYC    H4625631   3.732   1.459   4.154
  127MYC    H4725632   3.609   1.336   4.186
  127MYC    C2725633   3.800   1.286   4.266
  127MYC    H4825634   3.763   1.183   4.278
  127MYC    H4925635   3.905   1.282   4.236
  127MYC    C2825636   3.793   1.359   4.401
  127MYC    H5025637   3.836   1.458   4.383
  127MYC    H5125638   3.685   1.368   4.416
  127MYC    C2925639   3.864   1.290   4.519
  127MYC    H5225640   3.853   1.182   4.508
  127MYC    H5325641   3.971   1.311   4.508
  127MYC    C3025642   3.796   1.332   4.650
  127MYC    H5425643   3.803   1.441   4.662
  127MYC    H5525644   3.688   1.310   4.645
  127MYC    C3125645   3.858   1.260   4.771
  127MYC    H5625646   3.867   1.153   4.750
  127MYC    H5725647   3.962   1.292   4.785
  127MYC    C3225648   3.783   1.278   4.903
  127MYC    H5825649   3.791   1.383   4.932
  127MYC    H5925650   3.678   1.251   4.887
  127MYC    C3325651   3.843   1.192   5.016
  127MYC    H6025652   3.822   1.087   4.992
  127MYC    H6125653   3.951   1.213   5.016
  127MYC    C3425654   3.778   1.223   5.151
  127MYC    H6225655   3.811   1.324   5.177
  127MYC    H6325656   3.669   1.232   5.139
  127MYC    C3525657   3.822   1.118   5.255
  127MYC    H6425658   3.786   1.019   5.223
  127MYC    H6525659   3.931   1.118   5.264
  127MYC    C3625660   3.760   1.160   5.389
  127MYC    H6625661   3.787   1.265   5.406
  127MYC    H6725662   3.653   1.146   5.369
  127MYC    C3725663   3.811   1.072   5.504
  127MYC    H6825664   3.799   0.972   5.459
  127MYC    H6925665   3.920   1.083   5.500
  127MYC    C3825666   3.740   1.097   5.638
  127MYC    H7025667   3.722   1.205   5.640
  127MYC    H7125668   3.640   1.054   5.630
  127MYC    C3925669   3.817   1.041   5.759
  127MYC    H7225670   3.854   0.945   5.721
  127MYC    H7325671   3.900   1.107   5.788
  127MYC    C4025672   3.730   1.007   5.882
  127MYC    H7425673   3.655   1.080   5.916
  127MYC    H7525674   3.666   0.924   5.852
  127MYC    C4125675   3.812   0.971   6.007
  127MYC    H7625676   3.878   0.886   5.983
  127MYC    H7725677   3.879   1.056   6.025
  127MYC    C4225678   3.739   0.946   6.140
  127MYC    H7825679   3.679   1.035   6.161
  127MYC    H7925680   3.672   0.861   6.122
  127MYC    C4325681   3.825   0.910   6.262
  127MYC    H8025682   3.766   0.907   6.354
  127MYC    H8125683   3.903   0.986   6.277
  127MYC    H8225684   3.864   0.808   6.261
  128MYC   5H1525685   3.541   1.550   6.201
  128MYC    C8025686   3.589   1.627   6.140
  128MYC   3H1525687   3.515   1.699   6.103
  128MYC   4H1525688   3.654   1.680   6.210
  128MYC    C7925689   3.669   1.566   6.024
  128MYC   1H1525690   3.602   1.517   5.952
  128MYC   2H1525691   3.734   1.485   6.061
  128MYC    C7825692   3.760   1.661   5.945
  128MYC   9H1425693   3.844   1.702   6.001
  128MYC   0H1525694   3.694   1.745   5.921
  128MYC    C7725695   3.813   1.603   5.812
  128MYC   7H1425696   3.727   1.564   5.756
  128MYC   8H1425697   3.881   1.521   5.837
  128MYC    C7625698   3.875   1.709   5.721
  128MYC   5H1425699   3.960   1.763   5.765
  128MYC   6H1425700   3.803   1.786   5.690
  128MYC    C7525701   3.929   1.649   5.590
  128MYC   3H1425702   3.853   1.578   5.555
  128MYC   4H1425703   4.016   1.585   5.609
  128MYC    C7425704   3.969   1.749   5.481
  128MYC   1H1425705   4.070   1.786   5.502
  128MYC   2H1425706   3.910   1.842   5.489
  128MYC    C7325707   3.959   1.689   5.340
  128MYC   9H1325708   3.864   1.637   5.326
  128MYC   0H1425709   4.032   1.608   5.325
  128MYC    C7225710   3.974   1.792   5.227
  128MYC   7H1325711   4.056   1.858   5.260
  128MYC   8H1325712   3.880   1.849   5.228
  128MYC    C7125713   3.978   1.722   5.090
  128MYC   5H1325714   3.881   1.676   5.069
  128MYC   6H1325715   4.051   1.641   5.095
  128MYC    C7025716   4.015   1.813   4.972
  128MYC   3H1325717   4.121   1.842   4.975
  128MYC   4H1325718   3.951   1.902   4.975
  128MYC    C6925719   3.993   1.738   4.840
  128MYC   1H1325720   3.884   1.727   4.831
  128MYC   2H1325721   4.040   1.639   4.850
  128MYC    C6825722   4.057   1.799   4.714
  128MYC   9H1225723   4.167   1.799   4.716
  128MYC   0H1325724   4.044   1.908   4.709
  128MYC    C6725725   4.002   1.734   4.586
  128MYC   7H1225726   3.892   1.743   4.588
  128MYC   8H1225727   4.010   1.625   4.591
  128MYC    C6625728   4.048   1.792   4.451
  128MYC   5H1225729   4.157   1.807   4.447
  128MYC   6H1225730   4.017   1.897   4.440
  128MYC    C6525731   4.009   1.701   4.334
  128MYC   3H1225732   3.900   1.703   4.333
  128MYC   4H1225733   4.047   1.601   4.360
  128MYC    C6425734   4.069   1.748   4.200
  128MYC   1H1225735   4.177   1.759   4.208
  128MYC   2H1225736   4.022   1.844   4.172
  128MYC    C6325737   4.037   1.652   4.085
  128MYC   9H1125738   3.929   1.653   4.065
  128MYC   0H1225739   4.073   1.554   4.118
  128MYC    C6225740   4.110   1.691   3.955
  128MYC   7H1125741   4.216   1.660   3.955
  128MYC   8H1125742   4.118   1.800   3.953
  128MYC    C6125743   4.042   1.632   3.830
  128MYC   5H1125744   3.947   1.686   3.819
  128MYC   6H1125745   4.027   1.526   3.852
  128MYC    C6025746   4.113   1.648   3.696
  128MYC   4H1125747   4.191   1.572   3.690
  128MYC    C5825748   4.025   1.676   3.577
  128MYC   1H1125749   3.918   1.684   3.594
  128MYC    C5925750   4.119   1.783   3.629
  128MYC   2H1125751   4.207   1.805   3.570
  128MYC   3H1125752   4.072   1.869   3.675
  128MYC    C5725753   4.050   1.617   3.439
  128MYC   9H1025754   3.993   1.524   3.424
  128MYC   0H1125755   4.155   1.591   3.422
  128MYC    C5625756   4.013   1.706   3.320
  128MYC   7H1025757   4.084   1.788   3.304
  128MYC   8H1025758   3.911   1.744   3.330
  128MYC    C5525759   4.022   1.620   3.193
  128MYC   5H1025760   3.939   1.549   3.191
  128MYC   6H1025761   4.105   1.549   3.203
  128MYC    C5425762   4.038   1.696   3.060
  128MYC   3H1025763   4.137   1.744   3.055
  128MYC   4H1025764   3.960   1.772   3.054
  128MYC    C5325765   4.017   1.604   2.938
  128MYC   1H1025766   3.919   1.555   2.928
  128MYC   2H1025767   4.084   1.518   2.953
  128MYC    C5225768   4.043   1.684   2.810
  128MYC    H9925769   4.145   1.725   2.818
  128MYC   0H1025770   3.974   1.767   2.793
  128MYC    C5125771   4.037   1.602   2.680
  128MYC    H9725772   3.938   1.554   2.678
  128MYC    H9825773   4.117   1.527   2.678
  128MYC    C5025774   4.046   1.687   2.553
  128MYC    H9525775   4.146   1.733   2.555
  128MYC    H9625776   3.978   1.772   2.567
  128MYC    C4925777   4.008   1.607   2.427
  128MYC    H9325778   3.899   1.596   2.431
  128MYC    H9425779   4.036   1.501   2.434
  128MYC    C4825780   4.057   1.667   2.294
  128MYC    H9125781   4.166   1.669   2.295
  128MYC    H9225782   4.029   1.773   2.285
  128MYC    C4725783   4.015   1.574   2.179
  128MYC    H8925784   3.905   1.569   2.169
  128MYC    H9025785   4.037   1.470   2.204
  128MYC    C4625786   4.071   1.615   2.042
  128MYC    H8725787   4.173   1.655   2.051
  128MYC    H8825788   4.010   1.696   2.001
  128MYC    C4525789   4.064   1.497   1.943
  128MYC    H8525790   3.956   1.483   1.928
  128MYC    H8625791   4.100   1.407   1.994
  128MYC    C4425792   4.126   1.528   1.806
  128MYC    H8325793   4.125   1.437   1.745
  128MYC    H8425794   4.232   1.538   1.830
  128MYC    C1825795   4.074   1.646   1.724
  128MYC    H3125796   3.968   1.661   1.740
  128MYC    C1725797   4.146   1.775   1.696
  128MYC    H3025798   4.252   1.779   1.719
  128MYC    C1925799   4.120   1.678   1.584
  128MYC    H3225800   4.207   1.633   1.537
  128MYC    H3325801   4.037   1.701   1.517
  128MYC    C1625802   4.070   1.907   1.706
  128MYC    H2825803   3.977   1.895   1.763
  128MYC    H2925804   4.042   1.934   1.603
  128MYC    C1525805   4.156   2.018   1.770
  128MYC    H2625806   4.099   2.111   1.768
  128MYC    H2725807   4.249   2.034   1.713
  128MYC    C1425808   4.200   1.989   1.914
  128MYC    H2425809   4.301   1.952   1.935
  128MYC    H2525810   4.131   1.915   1.956
  128MYC    C1325811   4.173   2.110   2.006
  128MYC    H2225812   4.069   2.119   2.038
  128MYC    H2325813   4.189   2.200   1.946
  128MYC    C1225814   4.253   2.105   2.137
  128MYC    H2025815   4.359   2.128   2.118
  128MYC    H2125816   4.247   2.006   2.184
  128MYC    C1125817   4.192   2.204   2.238
  128MYC    H1825818   4.088   2.175   2.258
  128MYC    H1925819   4.181   2.306   2.199
  128MYC    C1025820   4.272   2.219   2.368
  128MYC    H1625821   4.225   2.293   2.434
  128MYC    H1725822   4.373   2.256   2.347
  128MYC     C925823   4.287   2.090   2.450
  128MYC    H1425824   4.356   2.014   2.411
  128MYC    H1525825   4.196   2.030   2.444
  128MYC     C825826   4.321   2.134   2.593
  128MYC    H1225827   4.319   2.243   2.607
  128MYC    H1325828   4.428   2.114   2.606
  128MYC     C725829   4.237   2.059   2.698
  128MYC    H1025830   4.261   1.952   2.695
  128MYC    H1125831   4.129   2.060   2.675
  128MYC     C625832   4.264   2.109   2.841
  128MYC     H825833   4.215   2.207   2.851
  128MYC     H925834   4.370   2.136   2.851
  128MYC     C525835   4.222   2.018   2.957
  128MYC     H625836   4.303   2.015   3.032
  128MYC     H725837   4.208   1.916   2.920
  128MYC     C425838   4.098   2.076   3.029
  128MYC     H425839   4.035   1.997   3.070
  128MYC     H525840   4.034   2.122   2.953
  128MYC     C225841   4.131   2.177   3.140
  128MYC     H225842   4.197   2.121   3.207
  128MYC     O325843   4.202   2.284   3.079
  128MYC     H325844   4.189   2.363   3.134
  128MYC     C125845   4.010   2.231   3.219
  128MYC     H125846   3.949   2.148   3.259
  128MYC    C8125847   3.915   2.310   3.130
  128MYC    O8225848   3.906   2.431   3.137
  128MYC    O8325849   3.825   2.237   3.061
  128MYC   6H1525850   3.758   2.304   3.038
  128MYC    C2025851   4.055   2.312   3.342
  128MYC    H3425852   4.132   2.383   3.308
  128MYC    H3525853   3.967   2.364   3.381
  128MYC    C2125854   4.100   2.217   3.453
  128MYC    H3625855   4.017   2.151   3.483
  128MYC    H3725856   4.176   2.146   3.419
  128MYC    C2225857   4.155   2.291   3.576
  128MYC    H3825858   4.251   2.337   3.548
  128MYC    H3925859   4.088   2.376   3.595
  128MYC    C2325860   4.164   2.201   3.700
  128MYC    H4025861   4.064   2.156   3.707
  128MYC    H4125862   4.226   2.115   3.673
  128MYC    C2425863   4.219   2.270   3.826
  128MYC    H4225864   4.324   2.298   3.811
  128MYC    H4325865   4.156   2.358   3.840
  128MYC    C2525866   4.212   2.181   3.951
  128MYC    H4425867   4.107   2.151   3.954
  128MYC    H4525868   4.270   2.089   3.937
  128MYC    C2625869   4.242   2.254   4.083
  128MYC    H4625870   4.340   2.216   4.112
  128MYC    H4725871   4.262   2.360   4.067
  128MYC    C2725872   4.132   2.241   4.190
  128MYC    H4825873   4.051   2.308   4.162
  128MYC    H4925874   4.095   2.138   4.197
  128MYC    C2825875   4.184   2.287   4.328
  128MYC    H5025876   4.288   2.264   4.352
  128MYC    H5125877   4.180   2.396   4.325
  128MYC    C2925878   4.096   2.229   4.440
  128MYC    H5225879   3.993   2.263   4.422
  128MYC    H5325880   4.102   2.119   4.438
  128MYC    C3025881   4.134   2.273   4.582
  128MYC    H5425882   4.216   2.217   4.628
  128MYC    H5525883   4.171   2.375   4.565
  128MYC    C3125884   4.020   2.273   4.685
  128MYC    H5625885   3.955   2.360   4.671
  128MYC    H5725886   3.955   2.184   4.684
  128MYC    C3225887   4.073   2.288   4.828
  128MYC    H5825888   4.164   2.230   4.846
  128MYC    H5925889   4.106   2.392   4.839
  128MYC    C3325890   3.975   2.257   4.943
  128MYC    H6025891   3.875   2.299   4.926
  128MYC    H6125892   3.961   2.150   4.959
  128MYC    C3425893   4.031   2.318   5.073
  128MYC    H6225894   4.132   2.276   5.084
  128MYC    H6325895   4.032   2.427   5.069
  128MYC    C3525896   3.940   2.283   5.192
  128MYC    H6425897   3.837   2.315   5.175
  128MYC    H6525898   3.941   2.175   5.211
  128MYC    C3625899   3.978   2.356   5.322
  128MYC    H6625900   4.076   2.322   5.357
  128MYC    H6725901   3.982   2.465   5.314
  128MYC    C3725902   3.877   2.319   5.432
  128MYC    H6825903   3.776   2.345   5.400
  128MYC    H6925904   3.892   2.212   5.452
  128MYC    C3825905   3.926   2.386   5.561
  128MYC    H7025906   4.032   2.360   5.573
  128MYC    H7125907   3.933   2.495   5.554
  128MYC    C3925908   3.851   2.337   5.686
  128MYC    H7225909   3.744   2.360   5.683
  128MYC    H7325910   3.856   2.228   5.692
  128MYC    C4025911   3.903   2.397   5.818
  128MYC    H7425912   4.013   2.403   5.817
  128MYC    H7525913   3.864   2.499   5.817
  128MYC    C4125914   3.855   2.320   5.943
  128MYC    H7625915   3.747   2.334   5.953
  128MYC    H7725916   3.874   2.213   5.929
  128MYC    C4225917   3.917   2.371   6.074
  128MYC    H7825918   4.025   2.392   6.066
  128MYC    H7925919   3.873   2.465   6.108
  128MYC    C4325920   3.895   2.268   6.186
  128MYC    H8025921   3.909   2.313   6.285
  128MYC    H8125922   3.958   2.181   6.163
  128MYC    H8225923   3.792   2.231   6.189
  129MYC   5H1525924   3.692   2.732   6.139
  129MYC    C8025925   3.696   2.792   6.047
  129MYC   3H1525926   3.642   2.886   6.063
  129MYC   4H1525927   3.802   2.809   6.024
  129MYC    C7925928   3.627   2.707   5.939
  129MYC   1H1525929   3.525   2.682   5.969
  129MYC   2H1525930   3.685   2.614   5.935
  129MYC    C7825931   3.648   2.777   5.803
  129MYC   9H1425932   3.755   2.792   5.785
  129MYC   0H1525933   3.609   2.879   5.807
  129MYC    C7725934   3.588   2.701   5.683
  129MYC   7H1425935   3.483   2.728   5.666
  129MYC   8H1425936   3.592   2.593   5.703
  129MYC    C7625937   3.662   2.724   5.550
  129MYC   5H1425938   3.766   2.688   5.553
  129MYC   6H1425939   3.660   2.832   5.532
  129MYC    C7525940   3.590   2.668   5.427
  129MYC   3H1425941   3.497   2.724   5.409
  129MYC   4H1425942   3.559   2.566   5.451
  129MYC    C7425943   3.676   2.667   5.299
  129MYC   1H1425944   3.752   2.590   5.318
  129MYC   2H1425945   3.726   2.764   5.289
  129MYC    C7325946   3.591   2.638   5.174
  129MYC   9H1325947   3.538   2.731   5.150
  129MYC   0H1425948   3.519   2.557   5.192
  129MYC    C7225949   3.686   2.601   5.059
  129MYC   7H1325950   3.728   2.503   5.088
  129MYC   8H1325951   3.774   2.665   5.050
  129MYC    C7125952   3.618   2.620   4.923
  129MYC   5H1325953   3.583   2.723   4.906
  129MYC   6H1325954   3.532   2.552   4.919
  129MYC    C7025955   3.710   2.580   4.806
  129MYC   3H1325956   3.749   2.477   4.810
  129MYC   4H1325957   3.801   2.641   4.809
  129MYC    C6925958   3.643   2.613   4.672
  129MYC   1H1325959   3.609   2.717   4.665
  129MYC   2H1325960   3.549   2.557   4.671
  129MYC    C6825961   3.730   2.561   4.555
  129MYC   9H1225962   3.748   2.454   4.568
  129MYC   0H1325963   3.826   2.614   4.556
  129MYC    C6725964   3.655   2.590   4.424
  129MYC   7H1225965   3.655   2.695   4.391
  129MYC   8H1225966   3.549   2.565   4.436
  129MYC    C6625967   3.702   2.508   4.302
  129MYC   5H1225968   3.685   2.402   4.320
  129MYC   6H1225969   3.809   2.522   4.282
  129MYC    C6525970   3.642   2.566   4.173
  129MYC   3H1225971   3.657   2.674   4.180
  129MYC   4H1225972   3.533   2.550   4.178
  129MYC    C6425973   3.708   2.512   4.044
  129MYC   1H1225974   3.680   2.407   4.039
  129MYC   2H1225975   3.817   2.522   4.044
  129MYC    C6325976   3.648   2.585   3.923
  129MYC   9H1125977   3.671   2.691   3.938
  129MYC   0H1225978   3.539   2.574   3.915
  129MYC    C6225979   3.712   2.526   3.796
  129MYC   7H1125980   3.697   2.417   3.801
  129MYC   8H1125981   3.820   2.543   3.797
  129MYC    C6125982   3.640   2.589   3.675
  129MYC   5H1125983   3.634   2.697   3.690
  129MYC   6H1125984   3.540   2.545   3.674
  129MYC    C6025985   3.703   2.546   3.543
  129MYC   4H1125986   3.731   2.441   3.545
  129MYC    C5825987   3.665   2.608   3.411
  129MYC   1H1125988   3.605   2.699   3.412
  129MYC    C5925989   3.800   2.637   3.472
  129MYC   2H1125990   3.882   2.601   3.410
  129MYC   3H1125991   3.816   2.738   3.506
  129MYC    C5725992   3.634   2.511   3.298
  129MYC   9H1025993   3.537   2.465   3.322
  129MYC   0H1125994   3.708   2.430   3.293
  129MYC    C5625995   3.629   2.577   3.160
  129MYC   7H1025996   3.727   2.616   3.132
  129MYC   8H1025997   3.551   2.654   3.162
  129MYC    C5525998   3.601   2.471   3.052
  129MYC   5H1025999   3.492   2.464   3.041
  129MYC   6H1026000   3.635   2.377   3.096
  129MYC    C5426001   3.668   2.522   2.923
  129MYC   3H1026002   3.774   2.534   2.950
  129MYC   4H1026003   3.644   2.627   2.900
  129MYC    C5326004   3.656   2.425   2.805
  129MYC   1H1026005   3.550   2.426   2.774
  129MYC   2H1026006   3.686   2.322   2.827
  129MYC    C5226007   3.724   2.480   2.678
  129MYC    H9926008   3.831   2.488   2.700
  129MYC   0H1026009   3.683   2.577   2.650
  129MYC    C5126010   3.696   2.393   2.555
  129MYC    H9726011   3.588   2.380   2.545
  129MYC    H9826012   3.736   2.290   2.562
  129MYC    C5026013   3.753   2.460   2.428
  129MYC    H9526014   3.854   2.495   2.449
  129MYC    H9626015   3.698   2.552   2.406
  129MYC    C4926016   3.745   2.367   2.306
  129MYC    H9326017   3.638   2.360   2.282
  129MYC    H9426018   3.779   2.265   2.329
  129MYC    C4826019   3.813   2.429   2.183
  129MYC    H9126020   3.921   2.442   2.198
  129MYC    H9226021   3.771   2.529   2.163
  129MYC    C4726022   3.792   2.345   2.056
  129MYC    H8926023   3.687   2.320   2.035
  129MYC    H9026024   3.842   2.251   2.082
  129MYC    C4626025   3.863   2.382   1.925
  129MYC    H8726026   3.972   2.375   1.932
  129MYC    H8826027   3.840   2.488   1.909
  129MYC    C4526028   3.817   2.298   1.805
  129MYC    H8526029   3.711   2.319   1.786
  129MYC    H8626030   3.814   2.193   1.836
  129MYC    C4426031   3.907   2.313   1.681
  129MYC    H8326032   3.902   2.218   1.627
  129MYC    H8426033   4.012   2.319   1.711
  129MYC    C1826034   3.876   2.433   1.591
  129MYC    H3126035   3.803   2.495   1.643
  129MYC    C1726036   3.980   2.507   1.511
  129MYC    H3026037   4.070   2.449   1.495
  129MYC    C1926038   3.875   2.425   1.441
  129MYC    H3226039   3.900   2.330   1.393
  129MYC    H3326040   3.798   2.482   1.389
  129MYC    C1626041   3.992   2.657   1.490
  129MYC    H2826042   3.894   2.702   1.472
  129MYC    H2926043   4.054   2.674   1.401
  129MYC    C1526044   4.068   2.737   1.597
  129MYC    H2626045   4.090   2.840   1.567
  129MYC    H2726046   4.168   2.692   1.598
  129MYC    C1426047   4.000   2.739   1.735
  129MYC    H2426048   3.948   2.645   1.757
  129MYC    H2526049   3.918   2.811   1.746
  129MYC    C1326050   4.105   2.765   1.845
  129MYC    H2226051   4.117   2.874   1.847
  129MYC    H2326052   4.202   2.718   1.827
  129MYC    C1226053   4.057   2.724   1.985
  129MYC    H2026054   4.061   2.615   1.991
  129MYC    H2126055   3.958   2.764   2.011
  129MYC    C1126056   4.150   2.776   2.097
  129MYC    H1826057   4.153   2.885   2.099
  129MYC    H1926058   4.255   2.747   2.080
  129MYC    C1026059   4.114   2.721   2.236
  129MYC    H1626060   4.204   2.723   2.298
  129MYC    H1726061   4.102   2.612   2.229
  129MYC     C926062   3.999   2.793   2.308
  129MYC    H1426063   3.915   2.722   2.307
  129MYC    H1526064   3.970   2.887   2.260
  129MYC     C826065   4.036   2.819   2.455
  129MYC    H1226066   4.112   2.898   2.457
  129MYC    H1326067   4.090   2.734   2.499
  129MYC     C726068   3.915   2.859   2.540
  129MYC    H1026069   3.842   2.777   2.534
  129MYC    H1126070   3.860   2.940   2.490
  129MYC     C626071   3.942   2.904   2.684
  129MYC     H826072   3.851   2.955   2.719
  129MYC     H926073   4.024   2.978   2.688
  129MYC     C526074   3.967   2.788   2.782
  129MYC     H626075   4.027   2.708   2.737
  129MYC     H726076   3.870   2.746   2.813
  129MYC     C426077   4.044   2.852   2.898
  129MYC     H426078   3.996   2.945   2.932
  129MYC     H526079   4.142   2.881   2.859
  129MYC     C226080   4.067   2.756   3.016
  129MYC     H226081   3.969   2.707   3.023
  129MYC     O326082   4.164   2.656   2.985
  129MYC     H326083   4.241   2.711   2.960
  129MYC     C126084   4.109   2.830   3.144
  129MYC     H126085   4.020   2.888   3.170
  129MYC    C8126086   4.223   2.930   3.129
  129MYC    O8226087   4.211   3.050   3.144
  129MYC    O8326088   4.345   2.884   3.092
  129MYC   6H1526089   4.400   2.964   3.084
  129MYC    C2026090   4.129   2.733   3.261
  129MYC    H3426091   4.032   2.684   3.275
  129MYC    H3526092   4.210   2.662   3.240
  129MYC    C2126093   4.168   2.800   3.393
  129MYC    H3626094   4.267   2.845   3.376
  129MYC    H3726095   4.111   2.891   3.415
  129MYC    C2226096   4.171   2.710   3.517
  129MYC    H3826097   4.114   2.617   3.503
  129MYC    H3926098   4.273   2.678   3.540
  129MYC    C2326099   4.122   2.764   3.653
  129MYC    H4026100   4.168   2.864   3.654
  129MYC    H4126101   4.014   2.780   3.646
  129MYC    C2426102   4.163   2.687   3.780
  129MYC    H4226103   4.131   2.582   3.779
  129MYC    H4326104   4.272   2.681   3.790
  129MYC    C2526105   4.106   2.759   3.904
  129MYC    H4426106   4.135   2.865   3.904
  129MYC    H4526107   3.997   2.757   3.908
  129MYC    C2626108   4.145   2.690   4.035
  129MYC    H4626109   4.099   2.591   4.046
  129MYC    H4726110   4.254   2.676   4.036
  129MYC    C2726111   4.110   2.768   4.163
  129MYC    H4826112   4.134   2.874   4.154
  129MYC    H4926113   4.001   2.761   4.175
  129MYC    C2826114   4.170   2.712   4.293
  129MYC    H5026115   4.173   2.603   4.282
  129MYC    H5126116   4.277   2.737   4.282
  129MYC    C2926117   4.104   2.757   4.424
  129MYC    H5226118   4.114   2.866   4.429
  129MYC    H5326119   3.998   2.732   4.409
  129MYC    C3026120   4.165   2.693   4.549
  129MYC    H5426121   4.183   2.586   4.535
  129MYC    H5526122   4.261   2.742   4.568
  129MYC    C3126123   4.077   2.707   4.675
  129MYC    H5626124   4.012   2.795   4.673
  129MYC    H5726125   4.008   2.622   4.666
  129MYC    C3226126   4.168   2.703   4.798
  129MYC    H5826127   4.229   2.613   4.810
  129MYC    H5926128   4.238   2.788   4.804
  129MYC    C3326129   4.079   2.718   4.923
  129MYC    H6026130   4.040   2.820   4.913
  129MYC    H6126131   4.002   2.640   4.930
  129MYC    C3426132   4.160   2.705   5.053
  129MYC    H6226133   4.189   2.600   5.070
  129MYC    H6326134   4.254   2.762   5.049
  129MYC    C3526135   4.073   2.757   5.168
  129MYC    H6426136   4.011   2.844   5.144
  129MYC    H6526137   4.000   2.676   5.178
  129MYC    C3626138   4.158   2.777   5.295
  129MYC    H6626139   4.243   2.708   5.286
  129MYC    H6726140   4.197   2.879   5.300
  129MYC    C3726141   4.074   2.758   5.423
  129MYC    H6826142   4.026   2.854   5.444
  129MYC    H6926143   3.989   2.691   5.405
  129MYC    C3826144   4.159   2.719   5.545
  129MYC    H7026145   4.188   2.614   5.545
  129MYC    H7126146   4.258   2.766   5.543
  129MYC    C3926147   4.096   2.760   5.680
  129MYC    H7226148   4.096   2.869   5.676
  129MYC    H7326149   3.989   2.736   5.690
  129MYC    C4026150   4.189   2.711   5.792
  129MYC    H7426151   4.194   2.602   5.784
  129MYC    H7526152   4.289   2.746   5.764
  129MYC    C4126153   4.153   2.759   5.933
  129MYC    H7626154   4.183   2.863   5.951
  129MYC    H7726155   4.044   2.765   5.949
  129MYC    C4226156   4.224   2.671   6.037
  129MYC    H7826157   4.230   2.570   5.995
  129MYC    H7926158   4.333   2.682   6.035
  129MYC    C4326159   4.158   2.674   6.176
  129MYC    H8026160   4.195   2.581   6.221
  129MYC    H8126161   4.049   2.664   6.166
  129MYC    H8226162   4.184   2.756   6.245
  130MYC   5H1526163   4.248   3.330   6.206
  130MYC    C8026164   4.285   3.378   6.115
  130MYC   3H1526165   4.330   3.475   6.143
  130MYC   4H1526166   4.359   3.309   6.073
  130MYC    C7926167   4.171   3.399   6.014
  130MYC   1H1526168   4.148   3.505   6.025
  130MYC   2H1526169   4.074   3.353   6.039
  130MYC    C7826170   4.210   3.381   5.867
  130MYC   9H1426171   4.276   3.294   5.854
  130MYC   0H1526172   4.266   3.470   5.836
  130MYC    C7726173   4.090   3.385   5.770
  130MYC   7H1426174   4.043   3.484   5.774
  130MYC   8H1426175   4.021   3.307   5.802
  130MYC    C7626176   4.131   3.362   5.623
  130MYC   5H1426177   4.223   3.303   5.627
  130MYC   6H1426178   4.166   3.453   5.572
  130MYC    C7526179   4.025   3.299   5.532
  130MYC   3H1426180   3.927   3.345   5.551
  130MYC   4H1426181   4.010   3.193   5.554
  130MYC    C7426182   4.065   3.316   5.384
  130MYC   1H1426183   4.169   3.287   5.365
  130MYC   2H1426184   4.063   3.424   5.364
  130MYC    C7326185   3.980   3.228   5.290
  130MYC   9H1326186   3.879   3.271   5.297
  130MYC   0H1426187   3.982   3.121   5.315
  130MYC    C7226188   4.027   3.248   5.145
  130MYC   7H1326189   4.131   3.216   5.133
  130MYC   8H1326190   4.015   3.354   5.123
  130MYC    C7126191   3.935   3.173   5.047
  130MYC   5H1326192   3.831   3.207   5.059
  130MYC   6H1326193   3.946   3.066   5.066
  130MYC    C7026194   3.970   3.197   4.900
  130MYC   3H1326195   4.066   3.147   4.881
  130MYC   4H1326196   4.003   3.302   4.891
  130MYC    C6926197   3.862   3.170   4.794
  130MYC   1H1326198   3.771   3.228   4.817
  130MYC   2H1326199   3.842   3.062   4.795
  130MYC    C6826200   3.909   3.216   4.655
  130MYC   9H1226201   4.017   3.195   4.646
  130MYC   0H1326202   3.914   3.325   4.653
  130MYC    C6726203   3.842   3.157   4.530
  130MYC   7H1226204   3.737   3.190   4.525
  130MYC   8H1226205   3.849   3.048   4.536
  130MYC    C6626206   3.921   3.196   4.404
  130MYC   5H1226207   4.024   3.160   4.416
  130MYC   6H1226208   3.941   3.303   4.391
  130MYC    C6526209   3.861   3.148   4.270
  130MYC   3H1226210   3.753   3.164   4.285
  130MYC   4H1226211   3.890   3.043   4.261
  130MYC    C6426212   3.915   3.227   4.150
  130MYC   1H1226213   4.022   3.246   4.164
  130MYC   2H1226214   3.872   3.328   4.143
  130MYC    C6326215   3.884   3.155   4.018
  130MYC   9H1126216   3.775   3.159   4.009
  130MYC   0H1226217   3.924   3.053   4.017
  130MYC    C6226218   3.951   3.230   3.901
  130MYC   7H1126219   4.059   3.217   3.916
  130MYC   8H1126220   3.924   3.335   3.918
  130MYC    C6126221   3.900   3.184   3.763
  130MYC   5H1126222   3.793   3.210   3.765
  130MYC   6H1126223   3.912   3.076   3.753
  130MYC    C6026224   3.981   3.239   3.647
  130MYC   4H1126225   4.086   3.213   3.643
  130MYC    C5826226   3.907   3.264   3.517
  130MYC   1H1126227   3.799   3.257   3.515
  130MYC    C5926228   3.964   3.380   3.595
  130MYC   2H1126229   4.063   3.418   3.569
  130MYC   3H1126230   3.891   3.447   3.640
  130MYC    C5726231   3.961   3.213   3.384
  130MYC   9H1026232   3.900   3.126   3.355
  130MYC   0H1126233   4.064   3.175   3.388
  130MYC    C5626234   3.957   3.313   3.267
  130MYC   7H1026235   4.024   3.396   3.293
  130MYC   8H1026236   3.857   3.358   3.261
  130MYC    C5526237   3.993   3.253   3.131
  130MYC   5H1026238   3.965   3.148   3.115
  130MYC   6H1026239   4.101   3.271   3.127
  130MYC    C5426240   3.940   3.327   3.007
  130MYC   3H1026241   3.956   3.435   3.017
  130MYC   4H1026242   3.832   3.311   2.997
  130MYC    C5326243   4.012   3.287   2.878
  130MYC   1H1026244   4.000   3.179   2.864
  130MYC   2H1026245   4.121   3.294   2.890
  130MYC    C5226246   3.970   3.365   2.752
  130MYC    H9926247   3.991   3.472   2.766
  130MYC   0H1026248   3.861   3.359   2.741
  130MYC    C5126249   4.042   3.318   2.625
  130MYC    H9726250   4.003   3.220   2.594
  130MYC    H9826251   4.151   3.312   2.640
  130MYC    C5026252   4.018   3.415   2.509
  130MYC    H9526253   4.078   3.504   2.530
  130MYC    H9626254   3.914   3.450   2.510
  130MYC    C4926255   4.050   3.356   2.370
  130MYC    H9326256   3.966   3.289   2.344
  130MYC    H9426257   4.143   3.297   2.377
  130MYC    C4826258   4.071   3.455   2.255
  130MYC    H9126259   4.166   3.506   2.271
  130MYC    H9226260   3.994   3.533   2.245
  130MYC    C4726261   4.078   3.388   2.116
  130MYC    H8926262   3.986   3.329   2.105
  130MYC    H9026263   4.168   3.326   2.109
  130MYC    C4626264   4.086   3.491   2.002
  130MYC    H8726265   4.176   3.551   2.023
  130MYC    H8826266   3.994   3.551   2.001
  130MYC    C4526267   4.094   3.417   1.868
  130MYC    H8526268   4.004   3.355   1.862
  130MYC    H8626269   4.179   3.348   1.865
  130MYC    C4426270   4.107   3.513   1.748
  130MYC    H8326271   4.153   3.448   1.672
  130MYC    H8426272   4.182   3.589   1.771
  130MYC    C1826273   3.974   3.572   1.706
  130MYC    H3126274   3.899   3.577   1.784
  130MYC    C1726275   3.960   3.683   1.605
  130MYC    H3026276   4.043   3.728   1.550
  130MYC    C1926277   3.920   3.542   1.568
  130MYC    H3226278   3.977   3.494   1.489
  130MYC    H3326279   3.813   3.544   1.554
  130MYC    C1626280   3.855   3.789   1.636
  130MYC    H2826281   3.765   3.746   1.683
  130MYC    H2926282   3.817   3.826   1.539
  130MYC    C1526283   3.903   3.912   1.715
  130MYC    H2626284   3.819   3.979   1.737
  130MYC    H2726285   3.978   3.973   1.665
  130MYC    C1426286   3.964   3.870   1.850
  130MYC    H2426287   4.060   3.820   1.836
  130MYC    H2526288   3.904   3.789   1.894
  130MYC    C1326289   3.973   3.987   1.950
  130MYC    H2226290   3.876   4.028   1.979
  130MYC    H2326291   4.011   4.074   1.895
  130MYC    C1226292   4.072   3.952   2.062
  130MYC    H2026293   4.161   4.015   2.049
  130MYC    H2126294   4.103   3.847   2.053
  130MYC    C1126295   4.015   3.984   2.201
  130MYC    H1826296   3.920   3.930   2.209
  130MYC    H1926297   3.997   4.093   2.202
  130MYC    C1026298   4.093   3.955   2.330
  130MYC    H1626299   4.153   4.044   2.354
  130MYC    H1726300   4.149   3.865   2.304
  130MYC     C926301   3.999   3.936   2.450
  130MYC    H1426302   3.925   3.858   2.426
  130MYC    H1526303   3.943   4.025   2.479
  130MYC     C826304   4.088   3.895   2.568
  130MYC    H1226305   4.137   3.985   2.605
  130MYC    H1326306   4.166   3.827   2.530
  130MYC     C726307   4.015   3.824   2.684
  130MYC    H1026308   4.003   3.721   2.649
  130MYC    H1126309   3.918   3.872   2.697
  130MYC     C626310   4.096   3.825   2.815
  130MYC     H826311   4.097   3.930   2.848
  130MYC     H926312   4.198   3.790   2.793
  130MYC     C526313   4.017   3.752   2.925
  130MYC     H626314   4.070   3.661   2.956
  130MYC     H726315   3.918   3.727   2.885
  130MYC     C426316   4.002   3.830   3.057
  130MYC     H426317   3.918   3.779   3.107
  130MYC     H526318   3.975   3.934   3.034
  130MYC     C226319   4.121   3.841   3.153
  130MYC     H226320   4.139   3.734   3.161
  130MYC     O326321   4.235   3.910   3.102
  130MYC     H326322   4.260   3.978   3.166
  130MYC     C126323   4.078   3.898   3.289
  130MYC     H126324   3.979   3.863   3.324
  130MYC    C8126325   4.066   4.048   3.266
  130MYC    O8226326   4.152   4.132   3.284
  130MYC    O8326327   3.938   4.089   3.256
  130MYC   6H1526328   3.944   4.185   3.237
  130MYC    C2026329   4.182   3.874   3.400
  130MYC    H3426330   4.201   3.767   3.412
  130MYC    H3526331   4.280   3.917   3.377
  130MYC    C2126332   4.130   3.927   3.535
  130MYC    H3626333   4.129   4.037   3.533
  130MYC    H3726334   4.025   3.909   3.563
  130MYC    C2226335   4.217   3.878   3.652
  130MYC    H3826336   4.219   3.769   3.657
  130MYC    H3926337   4.325   3.898   3.640
  130MYC    C2326338   4.177   3.944   3.785
  130MYC    H4026339   4.188   4.052   3.771
  130MYC    H4126340   4.071   3.915   3.786
  130MYC    C2426341   4.243   3.888   3.912
  130MYC    H4226342   4.250   3.779   3.906
  130MYC    H4326343   4.349   3.919   3.912
  130MYC    C2526344   4.185   3.939   4.045
  130MYC    H4426345   4.191   4.048   4.044
  130MYC    H4526346   4.078   3.915   4.050
  130MYC    C2626347   4.263   3.887   4.167
  130MYC    H4626348   4.302   3.784   4.158
  130MYC    H4726349   4.354   3.947   4.176
  130MYC    C2726350   4.178   3.891   4.294
  130MYC    H4826351   4.148   3.997   4.301
  130MYC    H4926352   4.096   3.819   4.285
  130MYC    C2826353   4.253   3.853   4.423
  130MYC    H5026354   4.289   3.749   4.420
  130MYC    H5126355   4.348   3.907   4.433
  130MYC    C2926356   4.168   3.869   4.550
  130MYC    H5226357   4.131   3.972   4.560
  130MYC    H5326358   4.081   3.804   4.542
  130MYC    C3026359   4.243   3.818   4.674
  130MYC    H5426360   4.256   3.710   4.661
  130MYC    H5526361   4.341   3.865   4.689
  130MYC    C3126362   4.168   3.830   4.808
  130MYC    H5626363   4.124   3.930   4.818
  130MYC    H5726364   4.094   3.750   4.817
  130MYC    C3226365   4.261   3.812   4.929
  130MYC    H5826366   4.315   3.717   4.922
  130MYC    H5926367   4.323   3.901   4.945
  130MYC    C3326368   4.170   3.791   5.051
  130MYC    H6026369   4.083   3.857   5.037
  130MYC    H6126370   4.135   3.687   5.053
  130MYC    C3426371   4.233   3.828   5.187
  130MYC    H6226372   4.297   3.750   5.230
  130MYC    H6326373   4.299   3.915   5.178
  130MYC    C3526374   4.123   3.860   5.289
  130MYC    H6426375   4.088   3.961   5.266
  130MYC    H6526376   4.041   3.788   5.273
  130MYC    C3626377   4.178   3.841   5.431
  130MYC    H6626378   4.202   3.735   5.448
  130MYC    H6726379   4.271   3.899   5.437
  130MYC    C3726380   4.088   3.900   5.541
  130MYC    H6826381   4.073   4.008   5.526
  130MYC    H6926382   3.993   3.846   5.545
  130MYC    C3826383   4.152   3.863   5.675
  130MYC    H7026384   4.174   3.756   5.676
  130MYC    H7126385   4.249   3.909   5.698
  130MYC    C3926386   4.059   3.905   5.791
  130MYC    H7226387   4.041   4.013   5.793
  130MYC    H7326388   3.957   3.864   5.783
  130MYC    C4026389   4.115   3.873   5.930
  130MYC    H7426390   4.103   3.765   5.942
  130MYC    H7526391   4.221   3.903   5.928
  130MYC    C4126392   4.038   3.949   6.040
  130MYC    H7626393   4.038   4.057   6.022
  130MYC    H7726394   3.931   3.932   6.025
  130MYC    C4226395   4.075   3.906   6.183
  130MYC    H7826396   4.064   3.796   6.184
  130MYC    H7926397   4.179   3.933   6.203
  130MYC    C4326398   3.981   3.977   6.282
  130MYC    H8026399   3.940   3.910   6.360
  130MYC    H8126400   3.893   4.024   6.236
  130MYC    H8226401   4.035   4.053   6.339
  131MYC   5H1526402   4.220   4.148   6.117
  131MYC    C8026403   4.305   4.218   6.123
  131MYC   3H1526404   4.281   4.325   6.131
  131MYC   4H1526405   4.371   4.190   6.206
  131MYC    C7926406   4.394   4.195   5.999
  131MYC   1H1526407   4.410   4.087   5.987
  131MYC   2H1526408   4.496   4.231   6.015
  131MYC    C7826409   4.324   4.249   5.873
  131MYC   9H1426410   4.291   4.354   5.872
  131MYC   0H1526411   4.244   4.182   5.839
  131MYC    C7726412   4.421   4.234   5.755
  131MYC   7H1426413   4.470   4.135   5.754
  131MYC   8H1426414   4.501   4.308   5.772
  131MYC    C7626415   4.364   4.273   5.618
  131MYC   5H1426416   4.346   4.381   5.620
  131MYC   6H1426417   4.269   4.220   5.603
  131MYC    C7526418   4.462   4.246   5.503
  131MYC   3H1426419   4.507   4.146   5.510
  131MYC   4H1426420   4.542   4.320   5.501
  131MYC    C7426421   4.392   4.263   5.367
  131MYC   1H1426422   4.359   4.367   5.360
  131MYC   2H1426423   4.304   4.197   5.369
  131MYC    C7326424   4.482   4.222   5.250
  131MYC   9H1326425   4.500   4.114   5.249
  131MYC   0H1426426   4.579   4.274   5.243
  131MYC    C7226427   4.409   4.254   5.118
  131MYC   7H1326428   4.392   4.362   5.114
  131MYC   8H1326429   4.314   4.199   5.118
  131MYC    C7126430   4.485   4.218   4.989
  131MYC   5H1326431   4.492   4.108   4.985
  131MYC   6H1326432   4.588   4.253   4.992
  131MYC    C7026433   4.418   4.256   4.855
  131MYC   3H1326434   4.401   4.364   4.863
  131MYC   4H1326435   4.320   4.205   4.854
  131MYC    C6926436   4.501   4.214   4.733
  131MYC   1H1326437   4.517   4.105   4.731
  131MYC   2H1326438   4.599   4.263   4.736
  131MYC    C6826439   4.444   4.238   4.592
  131MYC   9H1226440   4.452   4.346   4.576
  131MYC   0H1326441   4.335   4.224   4.589
  131MYC    C6726442   4.515   4.176   4.471
  131MYC   7H1226443   4.523   4.068   4.488
  131MYC   8H1226444   4.620   4.207   4.467
  131MYC    C6626445   4.442   4.203   4.338
  131MYC   5H1226446   4.402   4.305   4.340
  131MYC   6H1226447   4.353   4.139   4.334
  131MYC    C6526448   4.539   4.185   4.220
  131MYC   3H1226449   4.578   4.082   4.223
  131MYC   4H1226450   4.625   4.253   4.231
  131MYC    C6426451   4.471   4.223   4.087
  131MYC   1H1226452   4.468   4.332   4.076
  131MYC   2H1226453   4.362   4.210   4.083
  131MYC    C6326454   4.550   4.160   3.971
  131MYC   9H1126455   4.545   4.051   3.973
  131MYC   0H1226456   4.651   4.197   3.989
  131MYC    C6226457   4.495   4.209   3.836
  131MYC   7H1126458   4.504   4.319   3.833
  131MYC   8H1126459   4.386   4.197   3.827
  131MYC    C6126460   4.566   4.142   3.717
  131MYC   5H1126461   4.522   4.042   3.720
  131MYC   6H1126462   4.672   4.134   3.746
  131MYC    C6026463   4.565   4.218   3.585
  131MYC   4H1126464   4.623   4.309   3.580
  131MYC    C5826465   4.541   4.148   3.454
  131MYC   1H1126466   4.522   4.041   3.455
  131MYC    C5926467   4.432   4.232   3.516
  131MYC   2H1126468   4.401   4.320   3.460
  131MYC   3H1126469   4.351   4.183   3.569
  131MYC    C5726470   4.604   4.185   3.320
  131MYC   9H1026471   4.706   4.145   3.311
  131MYC   0H1126472   4.619   4.294   3.317
  131MYC    C5626473   4.514   4.140   3.204
  131MYC   7H1026474   4.422   4.199   3.214
  131MYC   8H1026475   4.487   4.034   3.208
  131MYC    C5526476   4.578   4.182   3.070
  131MYC   5H1026477   4.671   4.124   3.067
  131MYC   6H1026478   4.610   4.286   3.088
  131MYC    C5426479   4.492   4.159   2.945
  131MYC   3H1026480   4.393   4.205   2.939
  131MYC   4H1026481   4.473   4.052   2.932
  131MYC    C5326482   4.574   4.205   2.822
  131MYC   1H1026483   4.655   4.133   2.804
  131MYC   2H1026484   4.614   4.305   2.838
  131MYC    C5226485   4.482   4.218   2.699
  131MYC    H9926486   4.411   4.301   2.709
  131MYC   0H1026487   4.427   4.125   2.680
  131MYC    C5126488   4.572   4.236   2.576
  131MYC    H9726489   4.643   4.153   2.564
  131MYC    H9826490   4.640   4.322   2.589
  131MYC    C5026491   4.491   4.272   2.451
  131MYC    H9526492   4.499   4.380   2.432
  131MYC    H9626493   4.384   4.248   2.457
  131MYC    C4926494   4.545   4.196   2.328
  131MYC    H9326495   4.533   4.089   2.346
  131MYC    H9426496   4.651   4.224   2.318
  131MYC    C4826497   4.466   4.253   2.209
  131MYC    H9126498   4.501   4.354   2.184
  131MYC    H9226499   4.359   4.260   2.232
  131MYC    C4726500   4.490   4.166   2.085
  131MYC    H8926501   4.459   4.064   2.109
  131MYC    H9026502   4.597   4.161   2.062
  131MYC    C4626503   4.410   4.228   1.969
  131MYC    H8726504   4.442   4.330   1.944
  131MYC    H8826505   4.306   4.239   2.005
  131MYC    C4526506   4.423   4.142   1.842
  131MYC    H8526507   4.359   4.056   1.864
  131MYC    H8626508   4.525   4.101   1.836
  131MYC    C4426509   4.381   4.212   1.712
  131MYC    H8326510   4.390   4.143   1.627
  131MYC    H8426511   4.444   4.297   1.684
  131MYC    C1826512   4.235   4.253   1.714
  131MYC    H3126513   4.169   4.166   1.719
  131MYC    C1726514   4.167   4.372   1.778
  131MYC    H3026515   4.229   4.428   1.848
  131MYC    C1926516   4.194   4.372   1.630
  131MYC    H3226517   4.267   4.447   1.601
  131MYC    H3326518   4.116   4.371   1.554
  131MYC    C1626519   4.020   4.390   1.811
  131MYC    H2826520   3.964   4.303   1.774
  131MYC    H2926521   3.987   4.475   1.750
  131MYC    C1526522   3.984   4.406   1.959
  131MYC    H2626523   4.034   4.498   1.993
  131MYC    H2726524   4.030   4.328   2.021
  131MYC    C1426525   3.836   4.425   1.996
  131MYC    H2426526   3.798   4.322   1.992
  131MYC    H2526527   3.773   4.482   1.926
  131MYC    C1326528   3.808   4.484   2.135
  131MYC    H2226529   3.699   4.489   2.139
  131MYC    H2326530   3.837   4.589   2.149
  131MYC    C1226531   3.854   4.402   2.257
  131MYC    H2026532   3.953   4.356   2.243
  131MYC    H2126533   3.789   4.314   2.252
  131MYC    C1126534   3.844   4.473   2.394
  131MYC    H1826535   3.778   4.422   2.465
  131MYC    H1926536   3.785   4.565   2.381
  131MYC    C1026537   3.983   4.503   2.450
  131MYC    H1626538   3.981   4.596   2.507
  131MYC    H1726539   4.053   4.530   2.369
  131MYC     C926540   4.053   4.388   2.524
  131MYC    H1426541   4.151   4.430   2.548
  131MYC    H1526542   4.087   4.298   2.470
  131MYC     C826543   3.975   4.349   2.651
  131MYC    H1226544   3.885   4.292   2.622
  131MYC    H1326545   3.939   4.443   2.696
  131MYC     C726546   4.073   4.276   2.744
  131MYC    H1026547   4.158   4.334   2.782
  131MYC    H1126548   4.126   4.202   2.683
  131MYC     C626549   4.003   4.208   2.863
  131MYC     H826550   4.078   4.160   2.926
  131MYC     H926551   3.929   4.133   2.835
  131MYC     C526552   3.921   4.300   2.955
  131MYC     H626553   3.880   4.230   3.029
  131MYC     H726554   3.844   4.358   2.903
  131MYC     C426555   4.009   4.407   3.023
  131MYC     H426556   4.073   4.457   2.949
  131MYC     H526557   4.073   4.364   3.101
  131MYC     C226558   3.923   4.513   3.092
  131MYC     H226559   3.999   4.571   3.147
  131MYC     O326560   3.868   4.600   2.994
  131MYC     H326561   3.773   4.580   2.989
  131MYC     C126562   3.821   4.464   3.196
  131MYC     H126563   3.852   4.361   3.218
  131MYC    C8126564   3.677   4.449   3.147
  131MYC    O8226565   3.637   4.462   3.033
  131MYC    O8326566   3.597   4.390   3.238
  131MYC   6H1526567   3.517   4.371   3.187
  131MYC    C2026568   3.839   4.544   3.326
  131MYC    H3426569   3.895   4.638   3.318
  131MYC    H3526570   3.738   4.566   3.362
  131MYC    C2126571   3.909   4.458   3.433
  131MYC    H3626572   3.850   4.368   3.454
  131MYC    H3726573   4.007   4.419   3.401
  131MYC    C2226574   3.936   4.526   3.569
  131MYC    H3826575   4.028   4.586   3.562
  131MYC    H3926576   3.849   4.590   3.588
  131MYC    C2326577   3.951   4.419   3.678
  131MYC    H4026578   3.863   4.355   3.684
  131MYC    H4126579   4.033   4.355   3.644
  131MYC    C2426580   3.980   4.482   3.816
  131MYC    H4226581   4.074   4.539   3.814
  131MYC    H4326582   3.905   4.558   3.841
  131MYC    C2526583   4.007   4.383   3.931
  131MYC    H4426584   3.943   4.295   3.916
  131MYC    H4526585   4.110   4.347   3.924
  131MYC    C2626586   3.990   4.442   4.072
  131MYC    H4626587   4.045   4.536   4.086
  131MYC    H4726588   3.883   4.457   4.093
  131MYC    C2726589   4.038   4.357   4.191
  131MYC    H4826590   3.974   4.268   4.188
  131MYC    H4926591   4.141   4.325   4.175
  131MYC    C2826592   4.023   4.439   4.321
  131MYC    H5026593   4.071   4.535   4.298
  131MYC    H5126594   3.921   4.474   4.339
  131MYC    C2926595   4.083   4.385   4.451
  131MYC    H5226596   4.024   4.295   4.471
  131MYC    H5326597   4.186   4.352   4.435
  131MYC    C3026598   4.067   4.478   4.573
  131MYC    H5426599   4.153   4.547   4.580
  131MYC    H5526600   3.976   4.537   4.557
  131MYC    C3126601   4.067   4.405   4.709
  131MYC    H5626602   4.021   4.305   4.706
  131MYC    H5726603   4.171   4.378   4.729
  131MYC    C3226604   4.022   4.491   4.827
  131MYC    H5826605   4.080   4.584   4.817
  131MYC    H5926606   3.915   4.519   4.824
  131MYC    C3326607   4.048   4.422   4.962
  131MYC    H6026608   3.998   4.325   4.967
  131MYC    H6126609   4.156   4.401   4.957
  131MYC    C3426610   4.012   4.505   5.087
  131MYC    H6226611   4.083   4.588   5.089
  131MYC    H6326612   3.915   4.550   5.064
  131MYC    C3526613   4.001   4.416   5.212
  131MYC    H6426614   3.922   4.340   5.200
  131MYC    H6526615   4.088   4.350   5.222
  131MYC    C3626616   3.971   4.484   5.346
  131MYC    H6626617   4.051   4.556   5.365
  131MYC    H6726618   3.880   4.544   5.330
  131MYC    C3726619   3.966   4.377   5.457
  131MYC    H6826620   3.888   4.302   5.442
  131MYC    H6926621   4.063   4.325   5.458
  131MYC    C3826622   3.941   4.451   5.590
  131MYC    H7026623   4.018   4.527   5.609
  131MYC    H7126624   3.844   4.501   5.584
  131MYC    C3926625   3.929   4.362   5.715
  131MYC    H7226626   3.844   4.294   5.699
  131MYC    H7326627   4.023   4.307   5.724
  131MYC    C4026628   3.913   4.440   5.846
  131MYC    H7426629   3.981   4.525   5.840
  131MYC    H7526630   3.813   4.485   5.838
  131MYC    C4126631   3.933   4.357   5.974
  131MYC    H7626632   3.881   4.261   5.965
  131MYC    H7726633   4.037   4.321   5.974
  131MYC    C4226634   3.892   4.424   6.106
  131MYC    H7826635   3.970   4.495   6.137
  131MYC    H7926636   3.794   4.473   6.100
  131MYC    C4326637   3.882   4.328   6.225
  131MYC    H8026638   3.913   4.388   6.312
  131MYC    H8126639   3.954   4.246   6.207
  131MYC    H8226640   3.786   4.282   6.249
  132MYC   5H1526641   3.965   4.830   6.177
  132MYC    C8026642   4.020   4.883   6.098
  132MYC   3H1526643   3.984   4.987   6.092
  132MYC   4H1526644   4.127   4.898   6.118
  132MYC    C7926645   4.006   4.813   5.962
  132MYC   1H1526646   3.899   4.810   5.939
  132MYC   2H1526647   4.036   4.708   5.965
  132MYC    C7826648   4.087   4.873   5.846
  132MYC   9H1426649   4.184   4.822   5.838
  132MYC   0H1526650   4.121   4.975   5.870
  132MYC    C7726651   4.013   4.858   5.712
  132MYC   7H1426652   3.925   4.922   5.697
  132MYC   8H1426653   3.989   4.751   5.708
  132MYC    C7626654   4.103   4.883   5.590
  132MYC   5H1426655   4.172   4.798   5.588
  132MYC   6H1426656   4.163   4.974   5.604
  132MYC    C7526657   4.017   4.887   5.463
  132MYC   3H1426658   3.946   4.970   5.462
  132MYC   4H1426659   3.952   4.799   5.460
  132MYC    C7426660   4.095   4.903   5.331
  132MYC   1H1426661   4.169   4.822   5.325
  132MYC   2H1426662   4.160   4.991   5.333
  132MYC    C7326663   3.996   4.908   5.213
  132MYC   9H1326664   3.933   4.994   5.242
  132MYC   0H1426665   3.929   4.822   5.206
  132MYC    C7226666   4.065   4.919   5.076
  132MYC   7H1326667   4.136   4.836   5.063
  132MYC   8H1326668   4.119   5.014   5.068
  132MYC    C7126669   3.954   4.919   4.970
  132MYC   5H1326670   3.881   4.996   5.000
  132MYC   6H1326671   3.914   4.817   4.966
  132MYC    C7026672   3.999   4.964   4.830
  132MYC   3H1326673   4.064   4.884   4.791
  132MYC   4H1326674   4.057   5.057   4.841
  132MYC    C6926675   3.885   4.997   4.733
  132MYC   1H1326676   3.803   5.057   4.774
  132MYC   2H1326677   3.836   4.900   4.714
  132MYC    C6826678   3.945   5.051   4.602
  132MYC   9H1226679   4.033   4.993   4.572
  132MYC   0H1326680   3.972   5.154   4.626
  132MYC    C6726681   3.845   5.059   4.485
  132MYC   7H1226682   3.773   5.138   4.513
  132MYC   8H1226683   3.783   4.969   4.477
  132MYC    C6626684   3.909   5.092   4.349
  132MYC   5H1226685   3.984   5.014   4.331
  132MYC   6H1226686   3.954   5.192   4.357
  132MYC    C6526687   3.807   5.086   4.234
  132MYC   3H1226688   3.735   5.168   4.236
  132MYC   4H1226689   3.751   4.992   4.236
  132MYC    C6426690   3.874   5.076   4.096
  132MYC   1H1226691   3.923   4.980   4.077
  132MYC   2H1226692   3.944   5.159   4.080
  132MYC    C6326693   3.763   5.077   3.989
  132MYC   9H1126694   3.704   5.169   3.998
  132MYC   0H1226695   3.684   5.007   4.018
  132MYC    C6226696   3.831   5.061   3.852
  132MYC   7H1126697   3.874   4.961   3.842
  132MYC   8H1126698   3.922   5.122   3.846
  132MYC    C6126699   3.735   5.071   3.731
  132MYC   5H1126700   3.664   5.153   3.740
  132MYC   6H1126701   3.673   4.981   3.725
  132MYC    C6026702   3.814   5.096   3.603
  132MYC   4H1126703   3.903   5.034   3.599
  132MYC    C5826704   3.738   5.116   3.475
  132MYC   1H1126705   3.632   5.132   3.495
  132MYC    C5926706   3.824   5.227   3.529
  132MYC   2H1126707   3.925   5.243   3.492
  132MYC   3H1126708   3.777   5.311   3.581
  132MYC    C5726709   3.775   5.025   3.359
  132MYC   9H1026710   3.735   4.927   3.386
  132MYC   0H1126711   3.884   5.010   3.354
  132MYC    C5626712   3.721   5.060   3.219
  132MYC   7H1026713   3.766   5.158   3.201
  132MYC   8H1026714   3.611   5.064   3.227
  132MYC    C5526715   3.752   4.966   3.102
  132MYC   5H1026716   3.695   4.873   3.110
  132MYC   6H1026717   3.857   4.933   3.110
  132MYC    C5426718   3.740   5.038   2.967
  132MYC   3H1026719   3.794   5.134   2.967
  132MYC   4H1026720   3.634   5.061   2.952
  132MYC    C5326721   3.784   4.952   2.847
  132MYC   1H1026722   3.736   4.854   2.846
  132MYC   2H1026723   3.890   4.932   2.865
  132MYC    C5226724   3.763   5.016   2.709
  132MYC    H9926725   3.814   5.113   2.707
  132MYC   0H1026726   3.656   5.032   2.691
  132MYC    C5126727   3.814   4.921   2.599
  132MYC    H9726728   3.758   4.827   2.605
  132MYC    H9826729   3.922   4.904   2.612
  132MYC    C5026730   3.793   4.992   2.464
  132MYC    H9526731   3.838   5.092   2.465
  132MYC    H9626732   3.687   5.012   2.446
  132MYC    C4926733   3.838   4.906   2.344
  132MYC    H9326734   3.793   4.806   2.351
  132MYC    H9426735   3.941   4.878   2.368
  132MYC    C4826736   3.814   4.960   2.202
  132MYC    H9126737   3.857   5.060   2.194
  132MYC    H9226738   3.705   4.962   2.199
  132MYC    C4726739   3.866   4.864   2.093
  132MYC    H8926740   3.790   4.786   2.081
  132MYC    H9026741   3.964   4.820   2.116
  132MYC    C4626742   3.879   4.920   1.950
  132MYC    H8726743   3.963   4.991   1.955
  132MYC    H8826744   3.788   4.977   1.932
  132MYC    C4526745   3.907   4.818   1.838
  132MYC    H8526746   3.828   4.742   1.829
  132MYC    H8626747   4.000   4.770   1.870
  132MYC    C4426748   3.934   4.886   1.703
  132MYC    H8326749   3.933   4.800   1.635
  132MYC    H8426750   4.038   4.921   1.691
  132MYC    C1826751   3.821   4.976   1.655
  132MYC    H3126752   3.720   4.949   1.683
  132MYC    C1726753   3.842   5.119   1.610
  132MYC    H3026754   3.947   5.147   1.604
  132MYC    C1926755   3.816   5.011   1.508
  132MYC    H3226756   3.895   4.964   1.450
  132MYC    H3326757   3.724   5.026   1.452
  132MYC    C1626758   3.740   5.231   1.623
  132MYC    H2826759   3.651   5.197   1.677
  132MYC    H2926760   3.707   5.256   1.522
  132MYC    C1526761   3.804   5.355   1.689
  132MYC    H2626762   3.751   5.446   1.658
  132MYC    H2726763   3.907   5.362   1.651
  132MYC    C1426764   3.799   5.341   1.842
  132MYC    H2426765   3.847   5.245   1.867
  132MYC    H2526766   3.701   5.338   1.890
  132MYC    C1326767   3.887   5.447   1.912
  132MYC    H2226768   3.817   5.531   1.912
  132MYC    H2326769   3.966   5.475   1.841
  132MYC    C1226770   3.937   5.414   2.053
  132MYC    H2026771   3.985   5.315   2.056
  132MYC    H2126772   3.850   5.409   2.120
  132MYC    C1126773   4.048   5.508   2.100
  132MYC    H1826774   4.011   5.611   2.107
  132MYC    H1926775   4.130   5.508   2.027
  132MYC    C1026776   4.107   5.464   2.236
  132MYC    H1626777   4.191   5.530   2.260
  132MYC    H1726778   4.140   5.360   2.223
  132MYC     C926779   4.004   5.459   2.350
  132MYC    H1426780   3.941   5.370   2.343
  132MYC    H1526781   3.943   5.550   2.344
  132MYC     C826782   4.073   5.457   2.487
  132MYC    H1226783   4.112   5.559   2.498
  132MYC    H1326784   4.155   5.386   2.476
  132MYC     C726785   3.975   5.419   2.599
  132MYC    H1026786   3.984   5.311   2.619
  132MYC    H1126787   3.872   5.444   2.571
  132MYC     C626788   4.016   5.500   2.722
  132MYC     H826789   3.956   5.591   2.732
  132MYC     H926790   4.119   5.538   2.720
  132MYC     C526791   3.999   5.433   2.860
  132MYC     H626792   4.087   5.371   2.879
  132MYC     H726793   3.923   5.355   2.844
  132MYC     C426794   3.958   5.523   2.977
  132MYC     H426795   3.853   5.503   3.002
  132MYC     H526796   3.964   5.630   2.954
  132MYC     C226797   4.046   5.506   3.103
  132MYC     H226798   3.987   5.557   3.180
  132MYC     O326799   4.049   5.373   3.152
  132MYC     H326800   4.033   5.314   3.076
  132MYC     C126801   4.180   5.580   3.106
  132MYC     H126802   4.166   5.688   3.114
  132MYC    C8126803   4.267   5.567   2.981
  132MYC    O8226804   4.349   5.480   2.959
  132MYC    O8326805   4.251   5.673   2.898
  132MYC   6H1526806   4.303   5.660   2.817
  132MYC    C2026807   4.255   5.550   3.237
  132MYC    H3426808   4.291   5.447   3.245
  132MYC    H3526809   4.344   5.614   3.227
  132MYC    C2126810   4.184   5.584   3.369
  132MYC    H3626811   4.124   5.676   3.361
  132MYC    H3726812   4.117   5.500   3.388
  132MYC    C2226813   4.281   5.599   3.488
  132MYC    H3826814   4.336   5.505   3.492
  132MYC    H3926815   4.343   5.688   3.471
  132MYC    C2326816   4.199   5.624   3.616
  132MYC    H4026817   4.162   5.727   3.615
  132MYC    H4126818   4.106   5.566   3.620
  132MYC    C2426819   4.279   5.600   3.745
  132MYC    H4226820   4.335   5.508   3.727
  132MYC    H4326821   4.352   5.682   3.755
  132MYC    C2526822   4.212   5.576   3.881
  132MYC    H4426823   4.134   5.650   3.901
  132MYC    H4526824   4.149   5.487   3.865
  132MYC    C2626825   4.296   5.554   4.008
  132MYC    H4626826   4.368   5.474   3.987
  132MYC    H4726827   4.365   5.639   4.014
  132MYC    C2726828   4.219   5.530   4.139
  132MYC    H4826829   4.157   5.620   4.149
  132MYC    H4926830   4.163   5.438   4.123
  132MYC    C2826831   4.311   5.535   4.262
  132MYC    H5026832   4.403   5.477   4.243
  132MYC    H5126833   4.347   5.638   4.272
  132MYC    C2926834   4.249   5.482   4.393
  132MYC    H5226835   4.148   5.522   4.406
  132MYC    H5326836   4.242   5.373   4.384
  132MYC    C3026837   4.318   5.508   4.528
  132MYC    H5426838   4.407   5.445   4.539
  132MYC    H5526839   4.359   5.609   4.535
  132MYC    C3126840   4.226   5.472   4.646
  132MYC    H5626841   4.142   5.542   4.653
  132MYC    H5726842   4.190   5.369   4.631
  132MYC    C3226843   4.296   5.481   4.782
  132MYC    H5826844   4.381   5.411   4.785
  132MYC    H5926845   4.343   5.580   4.796
  132MYC    C3326846   4.207   5.454   4.905
  132MYC    H6026847   4.107   5.498   4.903
  132MYC    H6126848   4.196   5.346   4.919
  132MYC    C3426849   4.269   5.495   5.040
  132MYC    H6226850   4.368   5.449   5.043
  132MYC    H6326851   4.278   5.604   5.044
  132MYC    C3526852   4.188   5.463   5.167
  132MYC    H6426853   4.094   5.521   5.164
  132MYC    H6526854   4.166   5.358   5.145
  132MYC    C3626855   4.261   5.465   5.302
  132MYC    H6626856   4.339   5.389   5.287
  132MYC    H6726857   4.319   5.557   5.319
  132MYC    C3726858   4.173   5.434   5.424
  132MYC    H6826859   4.068   5.462   5.412
  132MYC    H6926860   4.183   5.326   5.441
  132MYC    C3826861   4.226   5.499   5.553
  132MYC    H7026862   4.326   5.455   5.564
  132MYC    H7126863   4.224   5.608   5.538
  132MYC    C3926864   4.132   5.461   5.668
  132MYC    H7226865   4.027   5.490   5.655
  132MYC    H7326866   4.131   5.352   5.676
  132MYC    C4026867   4.183   5.515   5.803
  132MYC    H7426868   4.277   5.465   5.827
  132MYC    H7526869   4.204   5.621   5.787
  132MYC    C4126870   4.087   5.482   5.918
  132MYC    H7626871   3.982   5.509   5.902
  132MYC    H7726872   4.091   5.373   5.926
  132MYC    C4226873   4.143   5.525   6.055
  132MYC    H7826874   4.250   5.500   6.060
  132MYC    H7926875   4.130   5.633   6.065
  132MYC    C4326876   4.077   5.449   6.171
  132MYC    H8026877   4.109   5.490   6.268
  132MYC    H8126878   4.103   5.342   6.182
  132MYC    H8226879   3.968   5.453   6.174
  133MYC   5H1526880   3.915   6.064   6.149
  133MYC    C8026881   3.832   6.097   6.086
  133MYC   3H1526882   3.737   6.055   6.122
  133MYC   4H1526883   3.835   6.206   6.097
  133MYC    C7926884   3.859   6.055   5.941
  133MYC   1H1526885   3.828   5.950   5.930
  133MYC   2H1526886   3.968   6.062   5.926
  133MYC    C7826887   3.787   6.135   5.831
  133MYC   9H1426888   3.806   6.242   5.847
  133MYC   0H1526889   3.680   6.120   5.852
  133MYC    C7726890   3.822   6.088   5.689
  133MYC   7H1426891   3.783   5.987   5.676
  133MYC   8H1426892   3.931   6.081   5.681
  133MYC    C7626893   3.763   6.167   5.570
  133MYC   5H1426894   3.779   6.270   5.603
  133MYC   6H1426895   3.654   6.156   5.567
  133MYC    C7526896   3.829   6.129   5.436
  133MYC   3H1426897   3.817   6.020   5.423
  133MYC   4H1426898   3.936   6.151   5.439
  133MYC    C7426899   3.759   6.204   5.322
  133MYC   1H1426900   3.767   6.312   5.340
  133MYC   2H1426901   3.655   6.171   5.319
  133MYC    C7326902   3.820   6.166   5.186
  133MYC   9H1326903   3.807   6.059   5.165
  133MYC   0H1426904   3.928   6.184   5.193
  133MYC    C7226905   3.756   6.244   5.070
  133MYC   7H1326906   3.764   6.351   5.091
  133MYC   8H1326907   3.650   6.216   5.062
  133MYC    C7126908   3.825   6.190   4.944
  133MYC   5H1326909   3.820   6.081   4.931
  133MYC   6H1326910   3.932   6.211   4.948
  133MYC    C7026911   3.770   6.239   4.809
  133MYC   3H1326912   3.760   6.348   4.798
  133MYC   4H1326913   3.673   6.189   4.802
  133MYC    C6926914   3.869   6.189   4.702
  133MYC   1H1326915   3.883   6.082   4.720
  133MYC   2H1326916   3.959   6.247   4.724
  133MYC    C6826917   3.831   6.214   4.555
  133MYC   9H1226918   3.860   6.317   4.534
  133MYC   0H1326919   3.725   6.198   4.531
  133MYC    C6726920   3.914   6.117   4.468
  133MYC   7H1226921   3.894   6.010   4.484
  133MYC   8H1226922   4.018   6.120   4.501
  133MYC    C6626923   3.906   6.153   4.319
  133MYC   5H1226924   3.928   6.261   4.316
  133MYC   6H1226925   3.802   6.131   4.292
  133MYC    C6526926   3.999   6.071   4.228
  133MYC   3H1226927   3.974   5.967   4.207
  133MYC   4H1226928   4.101   6.062   4.269
  133MYC    C6426929   4.020   6.141   4.093
  133MYC   1H1226930   4.091   6.223   4.108
  133MYC   2H1226931   3.922   6.182   4.063
  133MYC    C6326932   4.083   6.051   3.985
  133MYC   9H1126933   4.018   5.963   3.984
  133MYC   0H1226934   4.184   6.017   4.009
  133MYC    C6226935   4.085   6.125   3.850
  133MYC   7H1126936   4.174   6.189   3.846
  133MYC   8H1126937   3.990   6.177   3.830
  133MYC    C6126938   4.098   6.021   3.736
  133MYC   5H1126939   4.019   5.945   3.738
  133MYC   6H1126940   4.186   5.958   3.750
  133MYC    C6026941   4.108   6.089   3.600
  133MYC   4H1126942   4.195   6.153   3.593
  133MYC    C5826943   4.098   5.997   3.481
  133MYC   1H1126944   4.071   5.893   3.496
  133MYC    C5926945   3.991   6.101   3.505
  133MYC   2H1126946   3.997   6.198   3.456
  133MYC   3H1126947   3.894   6.071   3.543
  133MYC    C5726948   4.186   6.009   3.357
  133MYC   9H1026949   4.261   5.930   3.368
  133MYC   0H1126950   4.249   6.098   3.362
  133MYC    C5626951   4.109   5.983   3.226
  133MYC   7H1026952   4.028   6.056   3.215
  133MYC   8H1026953   4.058   5.886   3.238
  133MYC    C5526954   4.201   5.978   3.103
  133MYC   5H1026955   4.277   5.901   3.119
  133MYC   6H1026956   4.247   6.078   3.104
  133MYC    C5426957   4.122   5.963   2.972
  133MYC   3H1026958   4.045   6.041   2.980
  133MYC   4H1026959   4.071   5.866   2.972
  133MYC    C5326960   4.200   5.988   2.842
  133MYC   1H1026961   4.284   5.918   2.842
  133MYC   2H1026962   4.237   6.092   2.839
  133MYC    C5226963   4.109   5.952   2.723
  133MYC    H9926964   4.031   6.029   2.721
  133MYC   0H1026965   4.060   5.855   2.735
  133MYC    C5126966   4.184   5.950   2.589
  133MYC    H9726967   4.274   5.890   2.607
  133MYC    H9826968   4.211   6.054   2.568
  133MYC    C5026969   4.091   5.895   2.480
  133MYC    H9526970   3.988   5.933   2.483
  133MYC    H9626971   4.080   5.786   2.490
  133MYC    C4926972   4.158   5.917   2.343
  133MYC    H9326973   4.238   5.843   2.334
  133MYC    H9426974   4.204   6.017   2.348
  133MYC    C4826975   4.060   5.916   2.225
  133MYC    H9126976   4.012   6.015   2.224
  133MYC    H9226977   3.975   5.849   2.244
  133MYC    C4726978   4.128   5.884   2.091
  133MYC    H8926979   4.158   5.779   2.076
  133MYC    H9026980   4.218   5.945   2.079
  133MYC    C4626981   4.042   5.920   1.969
  133MYC    H8726982   3.996   6.018   1.982
  133MYC    H8826983   3.973   5.835   1.956
  133MYC    C4526984   4.118   5.934   1.836
  133MYC    H8526985   4.153   5.833   1.811
  133MYC    H8626986   4.200   6.006   1.832
  133MYC    C4426987   4.021   5.986   1.728
  133MYC    H8326988   4.081   6.003   1.638
  133MYC    H8426989   3.973   6.082   1.752
  133MYC    C1826990   3.912   5.886   1.693
  133MYC    H3126991   3.948   5.784   1.692
  133MYC    C1726992   3.764   5.905   1.720
  133MYC    H3026993   3.734   5.996   1.771
  133MYC    C1926994   3.816   5.908   1.578
  133MYC    H3226995   3.816   6.006   1.530
  133MYC    H3326996   3.798   5.832   1.503
  133MYC    C1626997   3.667   5.791   1.746
  133MYC    H2826998   3.709   5.698   1.787
  133MYC    H2926999   3.632   5.762   1.646
  133MYC    C1527000   3.552   5.835   1.838
  133MYC    H2627001   3.470   5.763   1.830
  133MYC    H2727002   3.509   5.932   1.812
  133MYC    C1427003   3.594   5.846   1.986
  133MYC    H2427004   3.663   5.929   2.005
  133MYC    H2527005   3.654   5.759   2.015
  133MYC    C1327006   3.476   5.867   2.083
  133MYC    H2227007   3.414   5.779   2.060
  133MYC    H2327008   3.421   5.955   2.047
  133MYC    C1227009   3.514   5.879   2.231
  133MYC    H2027010   3.538   5.985   2.245
  133MYC    H2127011   3.608   5.825   2.248
  133MYC    C1127012   3.398   5.836   2.322
  133MYC    H1827013   3.389   5.727   2.312
  133MYC    H1927014   3.302   5.882   2.296
  133MYC    C1027015   3.420   5.853   2.474
  133MYC    H1627016   3.343   5.797   2.528
  133MYC    H1727017   3.383   5.953   2.498
  133MYC     C927018   3.562   5.833   2.531
  133MYC    H1427019   3.619   5.917   2.490
  133MYC    H1527020   3.605   5.741   2.488
  133MYC     C827021   3.558   5.817   2.684
  133MYC    H1227022   3.517   5.719   2.712
  133MYC    H1327023   3.482   5.881   2.731
  133MYC     C727024   3.689   5.837   2.762
  133MYC    H1027025   3.711   5.944   2.768
  133MYC    H1127026   3.774   5.784   2.716
  133MYC     C627027   3.678   5.785   2.906
  133MYC     H827028   3.729   5.688   2.913
  133MYC     H927029   3.572   5.765   2.927
  133MYC     C527030   3.738   5.886   3.006
  133MYC     H627031   3.670   5.970   3.027
  133MYC     H727032   3.835   5.924   2.973
  133MYC     C427033   3.782   5.824   3.140
  133MYC     H427034   3.892   5.824   3.145
  133MYC     H527035   3.775   5.716   3.126
  133MYC     C227036   3.728   5.890   3.268
  133MYC     H227037   3.793   5.848   3.345
  133MYC     O327038   3.737   6.032   3.263
  133MYC     H327039   3.651   6.071   3.237
  133MYC     C127040   3.584   5.844   3.297
  133MYC     H127041   3.586   5.736   3.279
  133MYC    C8127042   3.479   5.903   3.203
  133MYC    O8227043   3.477   6.017   3.160
  133MYC    O8327044   3.375   5.820   3.181
  133MYC   6H1527045   3.301   5.878   3.157
  133MYC    C2027046   3.536   5.865   3.442
  133MYC    H3427047   3.488   5.963   3.453
  133MYC    H3527048   3.447   5.803   3.461
  133MYC    C2127049   3.640   5.837   3.551
  133MYC    H3627050   3.671   5.732   3.546
  133MYC    H3727051   3.728   5.902   3.540
  133MYC    C2227052   3.574   5.853   3.690
  133MYC    H3827053   3.528   5.951   3.705
  133MYC    H3927054   3.498   5.774   3.692
  133MYC    C2327055   3.671   5.833   3.808
  133MYC    H4027056   3.725   5.738   3.792
  133MYC    H4127057   3.750   5.908   3.806
  133MYC    C2427058   3.586   5.839   3.936
  133MYC    H4227059   3.512   5.920   3.935
  133MYC    H4327060   3.528   5.746   3.939
  133MYC    C2527061   3.657   5.855   4.071
  133MYC    H4427062   3.730   5.773   4.076
  133MYC    H4527063   3.723   5.943   4.075
  133MYC    C2627064   3.565   5.828   4.191
  133MYC    H4627065   3.478   5.895   4.188
  133MYC    H4727066   3.523   5.731   4.164
  133MYC    C2727067   3.637   5.833   4.327
  133MYC    H4827068   3.720   5.761   4.331
  133MYC    H4927069   3.689   5.929   4.341
  133MYC    C2827070   3.536   5.823   4.442
  133MYC    H5027071   3.452   5.891   4.425
  133MYC    H5127072   3.503   5.719   4.436
  133MYC    C2927073   3.594   5.855   4.580
  133MYC    H5227074   3.683   5.794   4.598
  133MYC    H5327075   3.634   5.957   4.585
  133MYC    C3027076   3.509   5.836   4.707
  133MYC    H5427077   3.429   5.911   4.712
  133MYC    H5527078   3.463   5.736   4.704
  133MYC    C3127079   3.577   5.861   4.843
  133MYC    H5627080   3.660   5.789   4.853
  133MYC    H5727081   3.621   5.961   4.854
  133MYC    C3227082   3.485   5.835   4.963
  133MYC    H5827083   3.401   5.904   4.950
  133MYC    H5927084   3.435   5.738   4.971
  133MYC    C3327085   3.554   5.862   5.098
  133MYC    H6027086   3.638   5.794   5.113
  133MYC    H6127087   3.595   5.964   5.097
  133MYC    C3427088   3.467   5.829   5.221
  133MYC    H6227089   3.374   5.884   5.205
  133MYC    H6327090   3.435   5.725   5.230
  133MYC    C3527091   3.541   5.861   5.353
  133MYC    H6427092   3.646   5.831   5.352
  133MYC    H6527093   3.540   5.969   5.369
  133MYC    C3627094   3.471   5.794   5.472
  133MYC    H6627095   3.362   5.792   5.464
  133MYC    H6727096   3.499   5.688   5.472
  133MYC    C3727097   3.529   5.848   5.604
  133MYC    H6827098   3.638   5.843   5.613
  133MYC    H6927099   3.510   5.955   5.620
  133MYC    C3827100   3.463   5.770   5.720
  133MYC    H7027101   3.355   5.789   5.718
  133MYC    H7127102   3.483   5.664   5.703
  133MYC    C3927103   3.526   5.815   5.853
  133MYC    H7227104   3.636   5.809   5.855
  133MYC    H7327105   3.503   5.921   5.867
  133MYC    C4027106   3.461   5.746   5.974
  133MYC    H7427107   3.354   5.771   5.976
  133MYC    H7527108   3.473   5.637   5.976
  133MYC    C4127109   3.514   5.807   6.104
  133MYC    H7627110   3.609   5.759   6.134
  133MYC    H7727111   3.538   5.914   6.107
  133MYC    C4227112   3.421   5.777   6.222
  133MYC    H7827113   3.316   5.794   6.194
  133MYC    H7927114   3.423   5.674   6.258
  133MYC    C4327115   3.455   5.863   6.345
  133MYC    H8027116   3.385   5.851   6.429
  133MYC    H8127117   3.460   5.970   6.319
  133MYC    H8227118   3.555   5.845   6.386
  134MYC   5H1527119   5.197   0.147   6.361
  134MYC    C8027120   5.141   0.116   6.272
  134MYC   3H1527121   5.160   0.010   6.255
  134MYC   4H1527122   5.036   0.130   6.301
  134MYC    C7927123   5.169   0.205   6.149
  134MYC   1H1527124   5.278   0.211   6.134
  134MYC   2H1527125   5.143   0.309   6.170
  134MYC    C7827126   5.097   0.137   6.031
  134MYC   9H1427127   4.994   0.169   6.049
  134MYC   0H1527128   5.091   0.029   6.044
  134MYC    C7727129   5.154   0.177   5.893
  134MYC   7H1427130   5.261   0.156   5.888
  134MYC   8H1427131   5.141   0.285   5.877
  134MYC    C7627132   5.085   0.105   5.776
  134MYC   5H1427133   4.978   0.129   5.774
  134MYC   6H1427134   5.091  -0.004   5.782
  134MYC    C7527135   5.145   0.139   5.638
  134MYC   3H1427136   5.251   0.112   5.639
  134MYC   4H1427137   5.147   0.247   5.617
  134MYC    C7427138   5.073   0.069   5.522
  134MYC   1H1427139   4.965   0.085   5.526
  134MYC   2H1427140   5.096  -0.037   5.511
  134MYC    C7327141   5.114   0.127   5.385
  134MYC   9H1327142   5.222   0.140   5.375
  134MYC   0H1427143   5.061   0.222   5.367
  134MYC    C7227144   5.067   0.044   5.264
  134MYC   7H1327145   4.958   0.042   5.275
  134MYC   8H1327146   5.110  -0.056   5.255
  134MYC    C7127147   5.098   0.116   5.132
  134MYC   5H1327148   5.195   0.083   5.092
  134MYC   6H1327149   5.113   0.220   5.164
  134MYC    C7027150   4.988   0.105   5.026
  134MYC   3H1327151   4.892   0.138   5.068
  134MYC   4H1327152   4.991   0.001   4.993
  134MYC    C6927153   5.019   0.194   4.904
  134MYC   1H1327154   5.113   0.152   4.867
  134MYC   2H1327155   5.025   0.301   4.928
  134MYC    C6827156   4.913   0.180   4.794
  134MYC   9H1227157   4.811   0.196   4.831
  134MYC   0H1327158   4.920   0.078   4.755
  134MYC    C6727159   4.939   0.273   4.673
  134MYC   7H1227160   5.040   0.248   4.641
  134MYC   8H1227161   4.944   0.379   4.699
  134MYC    C6627162   4.844   0.253   4.554
  134MYC   5H1227163   4.741   0.269   4.587
  134MYC   6H1227164   4.850   0.148   4.522
  134MYC    C6527165   4.869   0.347   4.435
  134MYC   3H1227166   4.978   0.336   4.423
  134MYC   4H1227167   4.852   0.454   4.448
  134MYC    C6427168   4.801   0.305   4.304
  134MYC   1H1227169   4.692   0.319   4.310
  134MYC   2H1227170   4.810   0.196   4.290
  134MYC    C6327171   4.854   0.381   4.181
  134MYC   9H1127172   4.957   0.346   4.166
  134MYC   0H1227173   4.856   0.490   4.193
  134MYC    C6227174   4.780   0.349   4.050
  134MYC   7H1127175   4.683   0.400   4.056
  134MYC   8H1127176   4.761   0.242   4.039
  134MYC    C6127177   4.852   0.400   3.924
  134MYC   5H1127178   4.954   0.359   3.921
  134MYC   6H1127179   4.863   0.509   3.920
  134MYC    C6027180   4.778   0.355   3.800
  134MYC   4H1127181   4.689   0.413   3.778
  134MYC    C5827182   4.857   0.310   3.679
  134MYC   1H1127183   4.964   0.293   3.682
  134MYC    C5927184   4.780   0.209   3.760
  134MYC   2H1127185   4.702   0.163   3.701
  134MYC   3H1127186   4.828   0.140   3.829
  134MYC    C5727187   4.816   0.367   3.544
  134MYC   9H1027188   4.875   0.458   3.526
  134MYC   0H1127189   4.708   0.380   3.550
  134MYC    C5627190   4.848   0.270   3.429
  134MYC   7H1027191   4.778   0.187   3.443
  134MYC   8H1027192   4.947   0.227   3.448
  134MYC    C5527193   4.837   0.328   3.287
  134MYC   5H1027194   4.853   0.437   3.286
  134MYC   6H1027195   4.733   0.316   3.253
  134MYC    C5427196   4.926   0.260   3.181
  134MYC   3H1027197   4.898   0.155   3.167
  134MYC   4H1027198   5.025   0.246   3.224
  134MYC    C5327199   4.929   0.344   3.052
  134MYC   1H1027200   4.948   0.448   3.081
  134MYC   2H1027201   4.832   0.332   3.003
  134MYC    C5227202   5.026   0.286   2.948
  134MYC    H9927203   5.000   0.180   2.936
  134MYC   0H1027204   5.131   0.295   2.978
  134MYC    C5127205   5.012   0.350   2.809
  134MYC    H9727206   5.058   0.449   2.810
  134MYC    H9827207   4.908   0.359   2.776
  134MYC    C5027208   5.093   0.273   2.703
  134MYC    H9527209   5.068   0.167   2.712
  134MYC    H9627210   5.201   0.273   2.723
  134MYC    C4927211   5.080   0.328   2.560
  134MYC    H9327212   5.159   0.404   2.551
  134MYC    H9427213   4.982   0.372   2.540
  134MYC    C4827214   5.102   0.222   2.450
  134MYC    H9127215   5.033   0.137   2.455
  134MYC    H9227216   5.204   0.181   2.454
  134MYC    C4727217   5.075   0.274   2.308
  134MYC    H8927218   5.150   0.349   2.281
  134MYC    H9027219   4.974   0.314   2.299
  134MYC    C4627220   5.092   0.169   2.196
  134MYC    H8727221   5.012   0.095   2.210
  134MYC    H8827222   5.187   0.117   2.215
  134MYC    C4527223   5.099   0.229   2.055
  134MYC    H8527224   5.139   0.146   1.995
  134MYC    H8627225   5.184   0.299   2.054
  134MYC    C4427226   4.970   0.293   2.001
  134MYC    H8327227   4.994   0.306   1.895
  134MYC    H8427228   4.947   0.389   2.049
  134MYC    C1827229   4.844   0.207   2.000
  134MYC    H3127230   4.862   0.100   2.010
  134MYC    C1727231   4.711   0.261   2.046
  134MYC    H3027232   4.709   0.365   2.075
  134MYC    C1927233   4.737   0.239   1.899
  134MYC    H3227234   4.758   0.323   1.834
  134MYC    H3327235   4.691   0.151   1.855
  134MYC    C1627236   4.615   0.177   2.130
  134MYC    H2827237   4.649   0.167   2.233
  134MYC    H2927238   4.609   0.075   2.090
  134MYC    C1527239   4.474   0.239   2.131
  134MYC    H2627240   4.409   0.169   2.186
  134MYC    H2727241   4.430   0.256   2.032
  134MYC    C1427242   4.466   0.367   2.215
  134MYC    H2427243   4.522   0.451   2.170
  134MYC    H2527244   4.520   0.352   2.309
  134MYC    C1327245   4.322   0.404   2.253
  134MYC    H2227246   4.280   0.320   2.309
  134MYC    H2327247   4.265   0.414   2.160
  134MYC    C1227248   4.327   0.537   2.331
  134MYC    H2027249   4.328   0.618   2.256
  134MYC    H2127250   4.419   0.531   2.390
  134MYC    C1127251   4.196   0.554   2.409
  134MYC    H1827252   4.162   0.467   2.466
  134MYC    H1927253   4.108   0.584   2.350
  134MYC    C1027254   4.215   0.667   2.511
  134MYC    H1627255   4.132   0.735   2.489
  134MYC    H1727256   4.305   0.729   2.498
  134MYC     C927257   4.208   0.629   2.659
  134MYC    H1427258   4.125   0.558   2.666
  134MYC    H1527259   4.170   0.708   2.724
  134MYC     C827260   4.330   0.553   2.713
  134MYC    H1227261   4.403   0.630   2.741
  134MYC    H1327262   4.375   0.490   2.635
  134MYC     C727263   4.301   0.467   2.837
  134MYC    H1027264   4.238   0.387   2.795
  134MYC    H1127265   4.236   0.525   2.904
  134MYC     C627266   4.430   0.414   2.901
  134MYC     H827267   4.464   0.505   2.952
  134MYC     H927268   4.505   0.372   2.832
  134MYC     C527269   4.405   0.297   2.996
  134MYC     H627270   4.499   0.246   3.019
  134MYC     H727271   4.339   0.218   2.956
  134MYC     C427272   4.338   0.341   3.128
  134MYC     H427273   4.304   0.252   3.182
  134MYC     H527274   4.246   0.392   3.098
  134MYC     C227275   4.424   0.418   3.229
  134MYC     H227276   4.443   0.352   3.315
  134MYC     O327277   4.540   0.478   3.173
  134MYC     H327278   4.518   0.564   3.133
  134MYC     C127279   4.337   0.529   3.292
  134MYC     H127280   4.245   0.484   3.329
  134MYC    C8127281   4.290   0.639   3.198
  134MYC    O8227282   4.364   0.706   3.128
  134MYC    O8327283   4.157   0.655   3.183
  134MYC   6H1527284   4.151   0.718   3.109
  134MYC    C2027285   4.393   0.587   3.424
  134MYC    H3427286   4.498   0.618   3.418
  134MYC    H3527287   4.337   0.680   3.440
  134MYC    C2127288   4.365   0.509   3.554
  134MYC    H3627289   4.264   0.467   3.550
  134MYC    H3727290   4.432   0.424   3.568
  134MYC    C2227291   4.371   0.607   3.672
  134MYC    H3827292   4.461   0.670   3.669
  134MYC    H3927293   4.281   0.671   3.670
  134MYC    C2327294   4.373   0.525   3.802
  134MYC    H4027295   4.283   0.463   3.796
  134MYC    H4127296   4.455   0.452   3.807
  134MYC    C2427297   4.378   0.610   3.930
  134MYC    H4227298   4.482   0.638   3.948
  134MYC    H4327299   4.322   0.704   3.927
  134MYC    C2527300   4.344   0.526   4.055
  134MYC    H4427301   4.239   0.494   4.051
  134MYC    H4527302   4.398   0.431   4.042
  134MYC    C2627303   4.384   0.591   4.188
  134MYC    H4627304   4.490   0.617   4.179
  134MYC    H4727305   4.332   0.684   4.215
  134MYC    C2727306   4.355   0.492   4.302
  134MYC    H4827307   4.255   0.448   4.291
  134MYC    H4927308   4.424   0.406   4.307
  134MYC    C2827309   4.368   0.559   4.440
  134MYC    H5027310   4.471   0.593   4.461
  134MYC    H5127311   4.306   0.649   4.444
  134MYC    C2927312   4.312   0.477   4.557
  134MYC    H5227313   4.205   0.461   4.536
  134MYC    H5327314   4.366   0.382   4.557
  134MYC    C3027315   4.324   0.551   4.692
  134MYC    H5427316   4.425   0.595   4.693
  134MYC    H5527317   4.262   0.640   4.683
  134MYC    C3127318   4.299   0.467   4.819
  134MYC    H5627319   4.211   0.404   4.801
  134MYC    H5727320   4.389   0.417   4.856
  134MYC    C3227321   4.261   0.553   4.941
  134MYC    H5827322   4.334   0.633   4.933
  134MYC    H5927323   4.166   0.608   4.931
  134MYC    C3327324   4.278   0.485   5.078
  134MYC    H6027325   4.204   0.404   5.081
  134MYC    H6127326   4.382   0.452   5.086
  134MYC    C3427327   4.237   0.570   5.200
  134MYC    H6227328   4.304   0.658   5.194
  134MYC    H6327329   4.131   0.598   5.196
  134MYC    C3527330   4.259   0.504   5.336
  134MYC    H6427331   4.229   0.400   5.319
  134MYC    H6527332   4.365   0.511   5.361
  134MYC    C3627333   4.177   0.574   5.446
  134MYC    H6627334   4.149   0.675   5.413
  134MYC    H6727335   4.078   0.526   5.455
  134MYC    C3727336   4.249   0.566   5.581
  134MYC    H6827337   4.286   0.470   5.617
  134MYC    H6927338   4.335   0.635   5.574
  134MYC    C3827339   4.154   0.620   5.689
  134MYC    H7027340   4.131   0.725   5.666
  134MYC    H7127341   4.063   0.559   5.690
  134MYC    C3927342   4.223   0.601   5.825
  134MYC    H7227343   4.246   0.497   5.849
  134MYC    H7327344   4.323   0.647   5.825
  134MYC    C4027345   4.135   0.643   5.944
  134MYC    H7427346   4.118   0.751   5.941
  134MYC    H7527347   4.035   0.597   5.946
  134MYC    C4127348   4.199   0.607   6.079
  134MYC    H7627349   4.224   0.500   6.084
  134MYC    H7727350   4.286   0.674   6.091
  134MYC    C4227351   4.097   0.646   6.187
  134MYC    H7827352   4.047   0.740   6.163
  134MYC    H7927353   4.024   0.563   6.183
  134MYC    C4327354   4.160   0.662   6.326
  134MYC    H8027355   4.098   0.698   6.409
  134MYC    H8127356   4.251   0.723   6.330
  134MYC    H8227357   4.182   0.560   6.359
  135MYC   5H1527358   4.656   0.648   6.200
  135MYC    C8027359   4.674   0.717   6.117
  135MYC   3H1527360   4.634   0.814   6.149
  135MYC   4H1527361   4.782   0.722   6.099
  135MYC    C7927362   4.618   0.674   5.980
  135MYC   1H1527363   4.509   0.674   5.971
  135MYC   2H1527364   4.653   0.573   5.957
  135MYC    C7827365   4.670   0.772   5.874
  135MYC   9H1427366   4.779   0.769   5.865
  135MYC   0H1527367   4.633   0.869   5.910
  135MYC    C7727368   4.605   0.745   5.737
  135MYC   7H1427369   4.507   0.795   5.736
  135MYC   8H1427370   4.586   0.638   5.726
  135MYC    C7627371   4.683   0.790   5.613
  135MYC   5H1427372   4.790   0.770   5.631
  135MYC   6H1427373   4.675   0.899   5.600
  135MYC    C7527374   4.633   0.716   5.488
  135MYC   3H1427375   4.536   0.762   5.464
  135MYC   4H1427376   4.620   0.608   5.502
  135MYC    C7427377   4.726   0.733   5.367
  135MYC   1H1427378   4.817   0.674   5.381
  135MYC   2H1427379   4.762   0.836   5.361
  135MYC    C7327380   4.640   0.702   5.243
  135MYC   9H1327381   4.567   0.782   5.230
  135MYC   0H1427382   4.600   0.600   5.256
  135MYC    C7227383   4.732   0.705   5.121
  135MYC   7H1327384   4.819   0.639   5.128
  135MYC   8H1327385   4.771   0.806   5.104
  135MYC    C7127386   4.655   0.666   4.993
  135MYC   5H1327387   4.581   0.746   4.978
  135MYC   6H1327388   4.610   0.568   5.011
  135MYC    C7027389   4.746   0.662   4.869
  135MYC   3H1327390   4.731   0.560   4.832
  135MYC   4H1327391   4.852   0.682   4.891
  135MYC    C6927392   4.697   0.758   4.759
  135MYC   1H1327393   4.720   0.854   4.806
  135MYC   2H1327394   4.588   0.752   4.748
  135MYC    C6827395   4.770   0.745   4.625
  135MYC   9H1227396   4.769   0.643   4.585
  135MYC   0H1327397   4.871   0.769   4.660
  135MYC    C6727398   4.727   0.826   4.501
  135MYC   7H1227399   4.774   0.924   4.513
  135MYC   8H1227400   4.617   0.828   4.502
  135MYC    C6627401   4.757   0.765   4.363
  135MYC   5H1227402   4.718   0.664   4.347
  135MYC   6H1227403   4.866   0.762   4.355
  135MYC    C6527404   4.701   0.856   4.251
  135MYC   3H1227405   4.739   0.959   4.251
  135MYC   4H1227406   4.592   0.855   4.257
  135MYC    C6427407   4.744   0.801   4.114
  135MYC   1H1227408   4.728   0.693   4.118
  135MYC   2H1227409   4.852   0.821   4.101
  135MYC    C6327410   4.671   0.866   3.995
  135MYC   9H1127411   4.695   0.972   3.982
  135MYC   0H1227412   4.564   0.848   4.007
  135MYC    C6227413   4.714   0.801   3.863
  135MYC   7H1127414   4.703   0.692   3.868
  135MYC   8H1127415   4.824   0.806   3.859
  135MYC    C6127416   4.661   0.866   3.734
  135MYC   5H1127417   4.696   0.970   3.745
  135MYC   6H1127418   4.552   0.867   3.740
  135MYC    C6027419   4.701   0.810   3.598
  135MYC   4H1127420   4.666   0.708   3.582
  135MYC    C5827421   4.715   0.878   3.465
  135MYC   1H1127422   4.686   0.983   3.467
  135MYC    C5927423   4.838   0.842   3.545
  135MYC   2H1127424   4.897   0.758   3.506
  135MYC   3H1127425   4.897   0.923   3.587
  135MYC    C5727426   4.693   0.811   3.330
  135MYC   9H1027427   4.585   0.801   3.317
  135MYC   0H1127428   4.732   0.708   3.340
  135MYC    C5627429   4.751   0.895   3.215
  135MYC   7H1027430   4.859   0.909   3.223
  135MYC   8H1027431   4.702   0.993   3.202
  135MYC    C5527432   4.741   0.822   3.080
  135MYC   5H1027433   4.651   0.761   3.064
  135MYC   6H1027434   4.823   0.750   3.070
  135MYC    C5427435   4.768   0.912   2.958
  135MYC   3H1027436   4.868   0.958   2.964
  135MYC   4H1027437   4.687   0.986   2.958
  135MYC    C5327438   4.753   0.838   2.824
  135MYC   1H1027439   4.664   0.774   2.814
  135MYC   2H1027440   4.841   0.774   2.808
  135MYC    C5227441   4.746   0.935   2.705
  135MYC    H9927442   4.843   0.983   2.687
  135MYC   0H1027443   4.676   1.015   2.731
  135MYC    C5127444   4.692   0.864   2.581
  135MYC    H9727445   4.588   0.829   2.586
  135MYC    H9827446   4.756   0.775   2.578
  135MYC    C5027447   4.716   0.947   2.454
  135MYC    H9527448   4.818   0.986   2.441
  135MYC    H9627449   4.658   1.040   2.456
  135MYC    C4927450   4.681   0.861   2.331
  135MYC    H9327451   4.577   0.828   2.345
  135MYC    H9427452   4.741   0.770   2.331
  135MYC    C4827453   4.691   0.928   2.193
  135MYC    H9127454   4.790   0.972   2.173
  135MYC    H9227455   4.613   1.006   2.191
  135MYC    C4727456   4.649   0.833   2.079
  135MYC    H8927457   4.549   0.794   2.100
  135MYC    H9027458   4.722   0.751   2.076
  135MYC    C4627459   4.665   0.897   1.941
  135MYC    H8727460   4.765   0.940   1.928
  135MYC    H8827461   4.600   0.986   1.933
  135MYC    C4527462   4.636   0.792   1.832
  135MYC    H8527463   4.531   0.806   1.804
  135MYC    H8627464   4.649   0.691   1.871
  135MYC    C4427465   4.724   0.797   1.706
  135MYC    H8327466   4.682   0.717   1.644
  135MYC    H8427467   4.825   0.776   1.742
  135MYC    C1827468   4.716   0.933   1.636
  135MYC    H3127469   4.619   0.979   1.620
  135MYC    C1727470   4.840   1.020   1.633
  135MYC    H3027471   4.922   0.973   1.685
  135MYC    C1927472   4.800   0.940   1.511
  135MYC    H3227473   4.871   0.861   1.485
  135MYC    H3327474   4.759   0.981   1.420
  135MYC    C1627475   4.836   1.172   1.620
  135MYC    H2827476   4.740   1.221   1.640
  135MYC    H2927477   4.860   1.210   1.520
  135MYC    C1527478   4.934   1.237   1.720
  135MYC    H2627479   4.921   1.343   1.699
  135MYC    H2727480   5.039   1.209   1.705
  135MYC    C1427481   4.907   1.203   1.867
  135MYC    H2427482   4.965   1.112   1.887
  135MYC    H2527483   4.799   1.187   1.876
  135MYC    C1327484   4.946   1.321   1.958
  135MYC    H2227485   4.884   1.408   1.931
  135MYC    H2327486   5.050   1.338   1.930
  135MYC    C1227487   4.941   1.290   2.109
  135MYC    H2027488   5.015   1.210   2.127
  135MYC    H2127489   4.847   1.241   2.138
  135MYC    C1127490   4.964   1.409   2.204
  135MYC    H1827491   4.871   1.466   2.211
  135MYC    H1927492   5.027   1.480   2.148
  135MYC    C1027493   5.022   1.363   2.339
  135MYC    H1627494   5.095   1.441   2.365
  135MYC    H1727495   5.074   1.267   2.338
  135MYC     C927496   4.924   1.363   2.457
  135MYC    H1427497   4.824   1.323   2.436
  135MYC    H1527498   4.895   1.468   2.473
  135MYC     C827499   4.987   1.303   2.584
  135MYC    H1227500   5.093   1.333   2.591
  135MYC    H1327501   4.976   1.195   2.572
  135MYC     C727502   4.909   1.345   2.710
  135MYC    H1027503   4.805   1.311   2.700
  135MYC    H1127504   4.913   1.454   2.722
  135MYC     C627505   4.974   1.286   2.836
  135MYC     H827506   5.082   1.303   2.833
  135MYC     H927507   4.967   1.176   2.836
  135MYC     C527508   4.923   1.337   2.972
  135MYC     H627509   4.958   1.268   3.050
  135MYC     H727510   4.814   1.331   2.983
  135MYC     C427511   4.972   1.479   3.002
  135MYC     H427512   4.898   1.554   2.971
  135MYC     H527513   5.064   1.502   2.946
  135MYC     C227514   5.010   1.497   3.150
  135MYC     H227515   4.939   1.428   3.197
  135MYC     O327516   5.145   1.465   3.182
  135MYC     H327517   5.191   1.538   3.228
  135MYC     C127518   4.988   1.640   3.201
  135MYC     H127519   4.880   1.652   3.188
  135MYC    C8127520   5.069   1.747   3.128
  135MYC    O8227521   5.167   1.717   3.062
  135MYC    O8327522   5.013   1.870   3.124
  135MYC   6H1527523   5.084   1.915   3.075
  135MYC    C2027524   5.022   1.658   3.350
  135MYC    H3427525   5.131   1.656   3.357
  135MYC    H3527526   4.993   1.760   3.379
  135MYC    C2127527   4.974   1.549   3.447
  135MYC    H3627528   4.868   1.527   3.426
  135MYC    H3727529   5.026   1.456   3.423
  135MYC    C2227530   5.001   1.574   3.597
  135MYC    H3827531   5.109   1.570   3.611
  135MYC    H3927532   4.951   1.665   3.631
  135MYC    C2327533   4.941   1.455   3.674
  135MYC    H4027534   4.832   1.457   3.664
  135MYC    H4127535   4.977   1.361   3.630
  135MYC    C2427536   4.986   1.459   3.821
  135MYC    H4227537   5.095   1.473   3.824
  135MYC    H4327538   4.952   1.552   3.869
  135MYC    C2527539   4.942   1.341   3.910
  135MYC    H4427540   4.833   1.338   3.896
  135MYC    H4527541   4.983   1.247   3.872
  135MYC    C2627542   4.971   1.370   4.058
  135MYC    H4627543   5.076   1.356   4.086
  135MYC    H4727544   4.959   1.475   4.088
  135MYC    C2727545   4.887   1.283   4.153
  135MYC    H4827546   4.783   1.311   4.130
  135MYC    H4927547   4.889   1.177   4.126
  135MYC    C2827548   4.925   1.318   4.298
  135MYC    H5027549   5.031   1.307   4.322
  135MYC    H5127550   4.907   1.424   4.317
  135MYC    C2927551   4.848   1.233   4.402
  135MYC    H5227552   4.747   1.274   4.395
  135MYC    H5327553   4.854   1.124   4.389
  135MYC    C3027554   4.906   1.267   4.540
  135MYC    H5427555   5.011   1.236   4.550
  135MYC    H5527556   4.911   1.377   4.545
  135MYC    C3127557   4.814   1.214   4.651
  135MYC    H5627558   4.717   1.263   4.663
  135MYC    H5727559   4.783   1.108   4.644
  135MYC    C3227560   4.881   1.208   4.789
  135MYC    H5827561   4.969   1.143   4.775
  135MYC    H5927562   4.917   1.308   4.815
  135MYC    C3327563   4.790   1.172   4.907
  135MYC    H6027564   4.702   1.237   4.897
  135MYC    H6127565   4.755   1.069   4.895
  135MYC    C3427566   4.843   1.185   5.051
  135MYC    H6227567   4.907   1.099   5.074
  135MYC    H6327568   4.903   1.276   5.065
  135MYC    C3527569   4.737   1.180   5.162
  135MYC    H6427570   4.678   1.272   5.158
  135MYC    H6527571   4.666   1.098   5.144
  135MYC    C3627572   4.804   1.178   5.300
  135MYC    H6627573   4.862   1.085   5.304
  135MYC    H6727574   4.870   1.266   5.311
  135MYC    C3727575   4.718   1.179   5.427
  135MYC    H6827576   4.643   1.258   5.412
  135MYC    H6927577   4.662   1.084   5.431
  135MYC    C3827578   4.793   1.195   5.560
  135MYC    H7027579   4.860   1.108   5.567
  135MYC    H7127580   4.856   1.285   5.562
  135MYC    C3927581   4.701   1.204   5.683
  135MYC    H7227582   4.651   1.301   5.672
  135MYC    H7327583   4.621   1.130   5.685
  135MYC    C4027584   4.782   1.207   5.814
  135MYC    H7427585   4.851   1.122   5.814
  135MYC    H7527586   4.854   1.288   5.804
  135MYC    C4127587   4.704   1.220   5.946
  135MYC    H7627588   4.654   1.317   5.955
  135MYC    H7727589   4.627   1.143   5.955
  135MYC    C4227590   4.804   1.214   6.063
  135MYC    H7827591   4.841   1.111   6.054
  135MYC    H7927592   4.892   1.279   6.054
  135MYC    C4327593   4.741   1.221   6.203
  135MYC    H8027594   4.815   1.215   6.284
  135MYC    H8127595   4.676   1.134   6.213
  135MYC    H8227596   4.683   1.312   6.224
  136MYC   5H1527597   4.835   2.123   6.137
  136MYC    C8027598   4.831   2.061   6.046
  136MYC   3H1527599   4.908   1.984   6.057
  136MYC   4H1527600   4.732   2.016   6.039
  136MYC    C7927601   4.865   2.145   5.922
  136MYC   1H1527602   4.950   2.210   5.942
  136MYC   2H1527603   4.782   2.217   5.912
  136MYC    C7827604   4.881   2.072   5.787
  136MYC   9H1427605   4.798   2.002   5.775
  136MYC   0H1527606   4.970   2.008   5.786
  136MYC    C7727607   4.891   2.173   5.672
  136MYC   7H1427608   4.995   2.207   5.667
  136MYC   8H1427609   4.817   2.252   5.693
  136MYC    C7627610   4.860   2.100   5.540
  136MYC   5H1427611   4.752   2.077   5.541
  136MYC   6H1427612   4.910   2.003   5.539
  136MYC    C7527613   4.898   2.191   5.422
  136MYC   3H1427614   5.000   2.227   5.442
  136MYC   4H1427615   4.826   2.273   5.416
  136MYC    C7427616   4.888   2.121   5.286
  136MYC   1H1427617   4.782   2.106   5.261
  136MYC   2H1427618   4.940   2.024   5.288
  136MYC    C7327619   4.956   2.208   5.179
  136MYC   9H1327620   5.056   2.234   5.216
  136MYC   0H1427621   4.902   2.301   5.158
  136MYC    C7227622   4.972   2.121   5.053
  136MYC   7H1327623   4.872   2.083   5.028
  136MYC   8H1327624   5.037   2.035   5.073
  136MYC    C7127625   5.018   2.210   4.936
  136MYC   5H1327626   5.127   2.218   4.933
  136MYC   6H1327627   4.972   2.309   4.949
  136MYC    C7027628   4.963   2.161   4.801
  136MYC   3H1327629   4.853   2.161   4.801
  136MYC   4H1327630   4.994   2.058   4.780
  136MYC    C6927631   4.994   2.248   4.678
  136MYC   1H1327632   5.103   2.243   4.671
  136MYC   2H1327633   4.965   2.351   4.702
  136MYC    C6827634   4.913   2.198   4.557
  136MYC   9H1227635   4.808   2.222   4.576
  136MYC   0H1327636   4.927   2.090   4.542
  136MYC    C6727637   4.951   2.269   4.426
  136MYC   7H1227638   5.044   2.229   4.385
  136MYC   8H1227639   4.964   2.373   4.457
  136MYC    C6627640   4.841   2.255   4.320
  136MYC   5H1227641   4.760   2.330   4.327
  136MYC   6H1227642   4.801   2.153   4.326
  136MYC    C6527643   4.899   2.267   4.178
  136MYC   3H1227644   4.989   2.205   4.171
  136MYC   4H1227645   4.927   2.373   4.167
  136MYC    C6427646   4.793   2.235   4.070
  136MYC   1H1227647   4.704   2.295   4.093
  136MYC   2H1227648   4.765   2.129   4.075
  136MYC    C6327649   4.862   2.245   3.933
  136MYC   9H1127650   4.954   2.185   3.931
  136MYC   0H1227651   4.892   2.348   3.912
  136MYC    C6227652   4.767   2.200   3.820
  136MYC   7H1127653   4.681   2.268   3.815
  136MYC   8H1127654   4.720   2.104   3.841
  136MYC    C6127655   4.830   2.182   3.681
  136MYC   5H1127656   4.916   2.114   3.685
  136MYC   6H1127657   4.873   2.276   3.646
  136MYC    C6027658   4.724   2.129   3.585
  136MYC   4H1127659   4.638   2.194   3.575
  136MYC    C5827660   4.762   2.039   3.471
  136MYC   1H1127661   4.870   2.036   3.459
  136MYC    C5927662   4.704   1.980   3.597
  136MYC   2H1127663   4.601   1.945   3.598
  136MYC   3H1127664   4.771   1.918   3.656
  136MYC    C5727665   4.676   2.034   3.345
  136MYC   9H1027666   4.581   2.085   3.365
  136MYC   0H1127667   4.649   1.930   3.322
  136MYC    C5627668   4.749   2.105   3.230
  136MYC   7H1027669   4.837   2.051   3.194
  136MYC   8H1027670   4.784   2.204   3.264
  136MYC    C5527671   4.660   2.137   3.109
  136MYC   5H1027672   4.582   2.212   3.130
  136MYC   6H1027673   4.601   2.050   3.076
  136MYC    C5427674   4.746   2.185   2.991
  136MYC   3H1027675   4.813   2.104   2.958
  136MYC   4H1027676   4.804   2.278   2.997
  136MYC    C5327677   4.663   2.211   2.865
  136MYC   1H1027678   4.575   2.275   2.882
  136MYC   2H1027679   4.638   2.118   2.813
  136MYC    C5227680   4.741   2.296   2.763
  136MYC    H9927681   4.841   2.251   2.753
  136MYC   0H1027682   4.755   2.399   2.796
  136MYC    C5127683   4.672   2.299   2.626
  136MYC    H9727684   4.630   2.400   2.621
  136MYC    H9827685   4.593   2.223   2.624
  136MYC    C5027686   4.774   2.296   2.511
  136MYC    H9527687   4.852   2.221   2.530
  136MYC    H9627688   4.815   2.396   2.494
  136MYC    C4927689   4.701   2.244   2.386
  136MYC    H9327690   4.621   2.312   2.353
  136MYC    H9427691   4.651   2.150   2.411
  136MYC    C4827692   4.801   2.216   2.272
  136MYC    H9127693   4.874   2.141   2.304
  136MYC    H9227694   4.859   2.307   2.252
  136MYC    C4727695   4.715   2.166   2.155
  136MYC    H8927696   4.627   2.231   2.149
  136MYC    H9027697   4.683   2.063   2.175
  136MYC    C4627698   4.790   2.157   2.021
  136MYC    H8727699   4.846   2.063   2.024
  136MYC    H8827700   4.839   2.253   2.000
  136MYC    C4527701   4.689   2.138   1.906
  136MYC    H8527702   4.740   2.159   1.811
  136MYC    H8627703   4.621   2.223   1.919
  136MYC    C4427704   4.614   2.004   1.899
  136MYC    H8327705   4.510   2.033   1.876
  136MYC    H8427706   4.613   1.953   1.996
  136MYC    C1827707   4.664   1.910   1.790
  136MYC    H3127708   4.771   1.892   1.793
  136MYC    C1727709   4.571   1.809   1.726
  136MYC    H3027710   4.465   1.813   1.751
  136MYC    C1927711   4.605   1.938   1.654
  136MYC    H3227712   4.526   2.012   1.650
  136MYC    H3327713   4.684   1.941   1.580
  136MYC    C1627714   4.619   1.671   1.685
  136MYC    H2827715   4.728   1.669   1.689
  136MYC    H2927716   4.595   1.655   1.579
  136MYC    C1527717   4.560   1.554   1.767
  136MYC    H2627718   4.617   1.466   1.732
  136MYC    H2727719   4.454   1.536   1.747
  136MYC    C1427720   4.572   1.571   1.919
  136MYC    H2427721   4.527   1.664   1.957
  136MYC    H2527722   4.676   1.592   1.948
  136MYC    C1327723   4.519   1.450   1.998
  136MYC    H2227724   4.584   1.363   1.982
  136MYC    H2327725   4.424   1.419   1.955
  136MYC    C1227726   4.488   1.489   2.144
  136MYC    H2027727   4.405   1.560   2.139
  136MYC    H2127728   4.570   1.547   2.187
  136MYC    C1127729   4.447   1.374   2.237
  136MYC    H1827730   4.520   1.292   2.243
  136MYC    H1927731   4.358   1.329   2.191
  136MYC    C1027732   4.396   1.425   2.373
  136MYC    H1627733   4.340   1.342   2.416
  136MYC    H1727734   4.324   1.507   2.364
  136MYC     C927735   4.507   1.457   2.475
  136MYC    H1427736   4.598   1.501   2.432
  136MYC    H1527737   4.525   1.359   2.521
  136MYC     C827738   4.449   1.550   2.583
  136MYC    H1227739   4.367   1.494   2.630
  136MYC    H1327740   4.393   1.633   2.538
  136MYC     C727741   4.547   1.603   2.689
  136MYC    H1027742   4.641   1.642   2.646
  136MYC    H1127743   4.576   1.519   2.753
  136MYC     C627744   4.493   1.719   2.773
  136MYC     H827745   4.399   1.685   2.818
  136MYC     H927746   4.478   1.804   2.704
  136MYC     C527747   4.594   1.768   2.878
  136MYC     H627748   4.584   1.869   2.920
  136MYC     H727749   4.688   1.781   2.824
  136MYC     C427750   4.626   1.669   2.991
  136MYC     H427751   4.722   1.691   3.039
  136MYC     H527752   4.617   1.567   2.950
  136MYC     C227753   4.536   1.670   3.116
  136MYC     H227754   4.590   1.740   3.181
  136MYC     O327755   4.408   1.728   3.093
  136MYC     H327756   4.337   1.664   3.073
  136MYC     C127757   4.528   1.531   3.181
  136MYC     H127758   4.630   1.491   3.181
  136MYC    C8127759   4.455   1.427   3.097
  136MYC    O8227760   4.378   1.453   3.007
  136MYC    O8327761   4.497   1.299   3.114
  136MYC   6H1527762   4.433   1.238   3.072
  136MYC    C2027763   4.466   1.520   3.321
  136MYC    H3427764   4.360   1.549   3.318
  136MYC    H3527765   4.464   1.416   3.358
  136MYC    C2127766   4.533   1.606   3.429
  136MYC    H3627767   4.639   1.621   3.408
  136MYC    H3727768   4.490   1.707   3.430
  136MYC    C2227769   4.515   1.529   3.561
  136MYC    H3827770   4.410   1.512   3.586
  136MYC    H3927771   4.554   1.427   3.559
  136MYC    C2327772   4.574   1.615   3.675
  136MYC    H4027773   4.682   1.600   3.667
  136MYC    H4127774   4.552   1.722   3.667
  136MYC    C2427775   4.537   1.574   3.818
  136MYC    H4227776   4.432   1.606   3.819
  136MYC    H4327777   4.544   1.465   3.827
  136MYC    C2527778   4.610   1.658   3.924
  136MYC    H4427779   4.717   1.666   3.902
  136MYC    H4527780   4.567   1.759   3.926
  136MYC    C2627781   4.582   1.589   4.059
  136MYC    H4627782   4.474   1.582   4.074
  136MYC    H4727783   4.620   1.486   4.058
  136MYC    C2727784   4.648   1.660   4.179
  136MYC    H4827785   4.754   1.679   4.158
  136MYC    H4927786   4.594   1.756   4.182
  136MYC    C2827787   4.627   1.585   4.312
  136MYC    H5027788   4.523   1.563   4.338
  136MYC    H5127789   4.671   1.485   4.294
  136MYC    C2927790   4.701   1.653   4.428
  136MYC    H5227791   4.810   1.654   4.416
  136MYC    H5327792   4.668   1.757   4.437
  136MYC    C3027793   4.667   1.588   4.563
  136MYC    H5427794   4.563   1.611   4.589
  136MYC    H5527795   4.679   1.479   4.559
  136MYC    C3127796   4.761   1.637   4.674
  136MYC    H5627797   4.859   1.587   4.673
  136MYC    H5727798   4.792   1.743   4.676
  136MYC    C3227799   4.700   1.591   4.807
  136MYC    H5827800   4.598   1.628   4.821
  136MYC    H5927801   4.674   1.484   4.813
  136MYC    C3327802   4.772   1.638   4.935
  136MYC    H6027803   4.875   1.600   4.940
  136MYC    H6127804   4.781   1.747   4.931
  136MYC    C3427805   4.707   1.592   5.067
  136MYC    H6227806   4.604   1.631   5.063
  136MYC    H6327807   4.697   1.483   5.072
  136MYC    C3527808   4.783   1.651   5.187
  136MYC    H6427809   4.885   1.612   5.200
  136MYC    H6527810   4.799   1.757   5.165
  136MYC    C3627811   4.708   1.640   5.321
  136MYC    H6627812   4.617   1.701   5.322
  136MYC    H6727813   4.675   1.535   5.320
  136MYC    C3727814   4.807   1.651   5.438
  136MYC    H6827815   4.883   1.572   5.434
  136MYC    H6927816   4.867   1.743   5.437
  136MYC    C3827817   4.725   1.648   5.567
  136MYC    H7027818   4.644   1.721   5.557
  136MYC    H7127819   4.682   1.548   5.583
  136MYC    C3927820   4.810   1.673   5.693
  136MYC    H7227821   4.884   1.594   5.708
  136MYC    H7327822   4.876   1.758   5.673
  136MYC    C4027823   4.716   1.698   5.812
  136MYC    H7427824   4.679   1.800   5.802
  136MYC    H7527825   4.632   1.628   5.802
  136MYC    C4127826   4.774   1.679   5.954
  136MYC    H7627827   4.840   1.592   5.965
  136MYC    H7727828   4.853   1.752   5.976
  136MYC    C4227829   4.666   1.682   6.064
  136MYC    H7827830   4.611   1.777   6.062
  136MYC    H7927831   4.592   1.602   6.060
  136MYC    C4327832   4.727   1.674   6.205
  136MYC    H8027833   4.647   1.673   6.279
  136MYC    H8127834   4.794   1.759   6.225
  136MYC    H8227835   4.776   1.578   6.223
  137MYC   5H1527836   5.123   2.795   6.259
  137MYC    C8027837   5.083   2.809   6.158
  137MYC   3H1527838   4.984   2.762   6.174
  137MYC   4H1527839   5.083   2.917   6.138
  137MYC    C7927840   5.173   2.731   6.061
  137MYC   1H1527841   5.152   2.624   6.075
  137MYC   2H1527842   5.274   2.742   6.101
  137MYC    C7827843   5.165   2.791   5.919
  137MYC   9H1427844   5.224   2.882   5.904
  137MYC   0H1527845   5.062   2.820   5.893
  137MYC    C7727846   5.207   2.685   5.815
  137MYC   7H1427847   5.174   2.586   5.849
  137MYC   8H1427848   5.317   2.687   5.814
  137MYC    C7627849   5.155   2.715   5.674
  137MYC   5H1427850   5.205   2.802   5.630
  137MYC   6H1427851   5.047   2.734   5.673
  137MYC    C7527852   5.190   2.602   5.575
  137MYC   3H1427853   5.121   2.519   5.593
  137MYC   4H1427854   5.294   2.572   5.592
  137MYC    C7427855   5.189   2.651   5.429
  137MYC   1H1427856   5.261   2.734   5.424
  137MYC   2H1427857   5.092   2.701   5.422
  137MYC    C7327858   5.205   2.552   5.312
  137MYC   9H1327859   5.139   2.464   5.320
  137MYC   0H1427860   5.305   2.508   5.317
  137MYC    C7227861   5.186   2.634   5.184
  137MYC   7H1327862   5.253   2.721   5.184
  137MYC   8H1327863   5.083   2.672   5.185
  137MYC    C7127864   5.201   2.548   5.057
  137MYC   5H1327865   5.127   2.467   5.050
  137MYC   6H1327866   5.295   2.492   5.053
  137MYC    C7027867   5.189   2.646   4.940
  137MYC   3H1327868   5.267   2.723   4.941
  137MYC   4H1327869   5.098   2.707   4.940
  137MYC    C6927870   5.203   2.561   4.812
  137MYC   1H1327871   5.109   2.507   4.799
  137MYC   2H1327872   5.294   2.501   4.820
  137MYC    C6827873   5.209   2.646   4.684
  137MYC   9H1227874   5.309   2.688   4.669
  137MYC   0H1327875   5.144   2.735   4.691
  137MYC    C6727876   5.171   2.561   4.562
  137MYC   7H1227877   5.072   2.516   4.575
  137MYC   8H1227878   5.250   2.485   4.550
  137MYC    C6627879   5.165   2.653   4.438
  137MYC   5H1227880   5.261   2.705   4.425
  137MYC   6H1227881   5.094   2.734   4.459
  137MYC    C6527882   5.132   2.588   4.303
  137MYC   3H1227883   5.033   2.543   4.314
  137MYC   4H1227884   5.193   2.497   4.292
  137MYC    C6427885   5.138   2.679   4.180
  137MYC   1H1227886   5.231   2.739   4.181
  137MYC   2H1227887   5.049   2.743   4.187
  137MYC    C6327888   5.121   2.597   4.051
  137MYC   9H1127889   5.016   2.585   4.021
  137MYC   0H1227890   5.172   2.501   4.054
  137MYC    C6227891   5.183   2.671   3.931
  137MYC   7H1127892   5.287   2.681   3.963
  137MYC   8H1127893   5.139   2.771   3.925
  137MYC    C6127894   5.169   2.584   3.804
  137MYC   5H1127895   5.068   2.543   3.808
  137MYC   6H1127896   5.248   2.509   3.816
  137MYC    C6027897   5.189   2.666   3.677
  137MYC   4H1127898   5.292   2.698   3.666
  137MYC    C5827899   5.109   2.619   3.558
  137MYC   1H1127900   5.048   2.531   3.576
  137MYC    C5927901   5.079   2.753   3.621
  137MYC   2H1127902   5.114   2.844   3.572
  137MYC   3H1127903   4.980   2.758   3.666
  137MYC    C5727904   5.192   2.601   3.431
  137MYC   9H1027905   5.235   2.501   3.420
  137MYC   0H1127906   5.274   2.673   3.429
  137MYC    C5627907   5.100   2.621   3.309
  137MYC   7H1027908   5.047   2.714   3.329
  137MYC   8H1027909   5.024   2.542   3.307
  137MYC    C5527910   5.188   2.630   3.183
  137MYC   5H1027911   5.257   2.545   3.190
  137MYC   6H1027912   5.241   2.727   3.174
  137MYC    C5427913   5.106   2.598   3.058
  137MYC   3H1027914   5.019   2.664   3.064
  137MYC   4H1027915   5.060   2.498   3.059
  137MYC    C5327916   5.192   2.634   2.936
  137MYC   1H1027917   5.281   2.569   2.938
  137MYC   2H1027918   5.222   2.739   2.948
  137MYC    C5227919   5.124   2.620   2.799
  137MYC    H9927920   5.042   2.693   2.796
  137MYC   0H1027921   5.086   2.518   2.786
  137MYC    C5127922   5.213   2.649   2.677
  137MYC    H9727923   5.294   2.576   2.671
  137MYC    H9827924   5.247   2.753   2.687
  137MYC    C5027925   5.142   2.654   2.541
  137MYC    H9527926   5.094   2.752   2.538
  137MYC    H9627927   5.076   2.567   2.527
  137MYC    C4927928   5.245   2.632   2.429
  137MYC    H9327929   5.292   2.533   2.425
  137MYC    H9427930   5.327   2.704   2.442
  137MYC    C4827931   5.181   2.665   2.293
  137MYC    H9127932   5.182   2.775   2.284
  137MYC    H9227933   5.083   2.617   2.296
  137MYC    C4727934   5.260   2.611   2.172
  137MYC    H8927935   5.255   2.502   2.167
  137MYC    H9027936   5.361   2.650   2.190
  137MYC    C4627937   5.209   2.673   2.041
  137MYC    H8727938   5.208   2.782   2.042
  137MYC    H8827939   5.112   2.630   2.012
  137MYC    C4527940   5.296   2.635   1.920
  137MYC    H8527941   5.312   2.527   1.915
  137MYC    H8627942   5.392   2.684   1.939
  137MYC    C4427943   5.241   2.690   1.787
  137MYC    H8327944   5.315   2.698   1.706
  137MYC    H8427945   5.209   2.794   1.798
  137MYC    C1827946   5.124   2.614   1.727
  137MYC    H3127947   5.144   2.509   1.713
  137MYC    C1727948   4.986   2.634   1.786
  137MYC    H3027949   4.990   2.703   1.870
  137MYC    C1927950   5.016   2.684   1.647
  137MYC    H3227951   5.035   2.790   1.630
  137MYC    H3327952   4.984   2.627   1.561
  137MYC    C1627953   4.887   2.520   1.802
  137MYC    H2827954   4.942   2.439   1.854
  137MYC    H2927955   4.867   2.475   1.704
  137MYC    C1527956   4.765   2.562   1.884
  137MYC    H2627957   4.685   2.496   1.850
  137MYC    H2727958   4.733   2.665   1.864
  137MYC    C1427959   4.790   2.547   2.035
  137MYC    H2427960   4.853   2.631   2.068
  137MYC    H2527961   4.843   2.454   2.059
  137MYC    C1327962   4.661   2.579   2.113
  137MYC    H2227963   4.599   2.492   2.091
  137MYC    H2327964   4.610   2.661   2.060
  137MYC    C1227965   4.676   2.616   2.262
  137MYC    H2027966   4.735   2.706   2.280
  137MYC    H2127967   4.735   2.540   2.314
  137MYC    C1127968   4.543   2.625   2.339
  137MYC    H1827969   4.527   2.532   2.396
  137MYC    H1927970   4.463   2.628   2.263
  137MYC    C1027971   4.533   2.748   2.431
  137MYC    H1627972   4.434   2.740   2.477
  137MYC    H1727973   4.534   2.845   2.380
  137MYC     C927974   4.641   2.745   2.540
  137MYC    H1427975   4.734   2.781   2.494
  137MYC    H1527976   4.657   2.643   2.578
  137MYC     C827977   4.610   2.845   2.653
  137MYC    H1227978   4.507   2.827   2.685
  137MYC    H1327979   4.616   2.949   2.619
  137MYC     C727980   4.694   2.821   2.780
  137MYC    H1027981   4.680   2.907   2.847
  137MYC    H1127982   4.800   2.811   2.752
  137MYC     C627983   4.649   2.701   2.864
  137MYC     H827984   4.636   2.619   2.792
  137MYC     H927985   4.548   2.718   2.902
  137MYC     C527986   4.758   2.645   2.958
  137MYC     H627987   4.795   2.730   3.017
  137MYC     H727988   4.835   2.601   2.894
  137MYC     C427989   4.712   2.540   3.061
  137MYC     H427990   4.807   2.493   3.089
  137MYC     H527991   4.652   2.465   3.008
  137MYC     C227992   4.655   2.602   3.189
  137MYC     H227993   4.734   2.660   3.239
  137MYC     O327994   4.550   2.694   3.160
  137MYC     H327995   4.477   2.668   3.219
  137MYC     C127996   4.597   2.503   3.291
  137MYC     H127997   4.667   2.420   3.304
  137MYC    C8127998   4.474   2.436   3.231
  137MYC    O8227999   4.434   2.447   3.117
  137MYC    O8328000   4.415   2.356   3.323
  137MYC   6H1528001   4.343   2.321   3.268
  137MYC    C2028002   4.567   2.572   3.425
  137MYC    H3428003   4.579   2.680   3.417
  137MYC    H3528004   4.461   2.565   3.456
  137MYC    C2128005   4.648   2.530   3.549
  137MYC    H3628006   4.646   2.421   3.555
  137MYC    H3728007   4.752   2.563   3.535
  137MYC    C2228008   4.587   2.587   3.678
  137MYC    H3828009   4.521   2.671   3.654
  137MYC    H3928010   4.528   2.508   3.727
  137MYC    C2328011   4.698   2.635   3.773
  137MYC    H4028012   4.776   2.558   3.771
  137MYC    H4128013   4.744   2.728   3.737
  137MYC    C2428014   4.633   2.656   3.911
  137MYC    H4228015   4.563   2.740   3.910
  137MYC    H4328016   4.569   2.570   3.937
  137MYC    C2528017   4.726   2.684   4.030
  137MYC    H4428018   4.784   2.593   4.046
  137MYC    H4528019   4.798   2.764   4.010
  137MYC    C2628020   4.648   2.707   4.161
  137MYC    H4628021   4.598   2.804   4.167
  137MYC    H4728022   4.583   2.620   4.176
  137MYC    C2728023   4.747   2.704   4.279
  137MYC    H4828024   4.791   2.604   4.278
  137MYC    H4928025   4.831   2.772   4.256
  137MYC    C2828026   4.676   2.746   4.409
  137MYC    H5028027   4.625   2.842   4.393
  137MYC    H5128028   4.594   2.676   4.432
  137MYC    C2928029   4.763   2.746   4.535
  137MYC    H5228030   4.816   2.650   4.537
  137MYC    H5328031   4.844   2.820   4.536
  137MYC    C3028032   4.682   2.762   4.665
  137MYC    H5428033   4.644   2.865   4.659
  137MYC    H5528034   4.591   2.701   4.662
  137MYC    C3128035   4.765   2.735   4.792
  137MYC    H5628036   4.797   2.630   4.790
  137MYC    H5728037   4.863   2.784   4.782
  137MYC    C3228038   4.684   2.780   4.914
  137MYC    H5828039   4.641   2.880   4.902
  137MYC    H5928040   4.591   2.723   4.920
  137MYC    C3328041   4.763   2.784   5.046
  137MYC    H6028042   4.835   2.701   5.044
  137MYC    H6128043   4.821   2.877   5.055
  137MYC    C3428044   4.675   2.767   5.171
  137MYC    H6228045   4.604   2.850   5.173
  137MYC    H6328046   4.612   2.678   5.162
  137MYC    C3528047   4.745   2.773   5.308
  137MYC    H6428048   4.798   2.677   5.321
  137MYC    H6528049   4.822   2.850   5.303
  137MYC    C3628050   4.652   2.797   5.429
  137MYC    H6628051   4.601   2.894   5.424
  137MYC    H6728052   4.579   2.715   5.434
  137MYC    C3728053   4.727   2.795   5.563
  137MYC    H6828054   4.750   2.694   5.598
  137MYC    H6928055   4.827   2.838   5.550
  137MYC    C3828056   4.642   2.860   5.675
  137MYC    H7028057   4.643   2.969   5.665
  137MYC    H7128058   4.535   2.839   5.665
  137MYC    C3928059   4.705   2.828   5.812
  137MYC    H7228060   4.706   2.720   5.827
  137MYC    H7328061   4.808   2.864   5.811
  137MYC    C4028062   4.636   2.889   5.935
  137MYC    H7428063   4.644   2.998   5.936
  137MYC    H7528064   4.528   2.868   5.926
  137MYC    C4128065   4.694   2.833   6.066
  137MYC    H7628066   4.714   2.725   6.062
  137MYC    H7728067   4.798   2.867   6.072
  137MYC    C4228068   4.612   2.873   6.190
  137MYC    H7828069   4.624   2.982   6.197
  137MYC    H7928070   4.506   2.853   6.173
  137MYC    C4328071   4.657   2.799   6.318
  137MYC    H8028072   4.591   2.821   6.402
  137MYC    H8128073   4.759   2.828   6.347
  137MYC    H8228074   4.669   2.691   6.305
  138MYC   5H1528075   4.918   3.204   6.234
  138MYC    C8028076   4.939   3.264   6.144
  138MYC   3H1528077   4.876   3.353   6.151
  138MYC   4H1528078   5.048   3.280   6.146
  138MYC    C7928079   4.895   3.196   6.014
  138MYC   1H1528080   4.786   3.189   6.002
  138MYC   2H1528081   4.934   3.094   6.027
  138MYC    C7828082   4.957   3.252   5.885
  138MYC   9H1428083   5.066   3.267   5.883
  138MYC   0H1528084   4.916   3.353   5.875
  138MYC    C7728085   4.932   3.180   5.751
  138MYC   7H1428086   4.833   3.133   5.758
  138MYC   8H1428087   5.000   3.095   5.743
  138MYC    C7628088   4.934   3.272   5.628
  138MYC   5H1428089   5.018   3.343   5.636
  138MYC   6H1428090   4.844   3.335   5.633
  138MYC    C7528091   4.945   3.196   5.495
  138MYC   3H1428092   4.877   3.109   5.501
  138MYC   4H1428093   5.045   3.152   5.499
  138MYC    C7428094   4.909   3.288   5.377
  138MYC   1H1428095   4.963   3.382   5.397
  138MYC   2H1428096   4.801   3.308   5.379
  138MYC    C7328097   4.945   3.229   5.240
  138MYC   9H1328098   4.904   3.127   5.242
  138MYC   0H1428099   5.053   3.212   5.227
  138MYC    C7228100   4.884   3.311   5.126
  138MYC   7H1328101   4.928   3.411   5.129
  138MYC   8H1328102   4.777   3.314   5.150
  138MYC    C7128103   4.922   3.245   4.992
  138MYC   5H1328104   4.914   3.136   4.992
  138MYC   6H1328105   5.023   3.267   4.956
  138MYC    C7028106   4.830   3.301   4.881
  138MYC   3H1328107   4.837   3.410   4.888
  138MYC   4H1328108   4.733   3.261   4.912
  138MYC    C6928109   4.871   3.253   4.741
  138MYC   1H1328110   4.872   3.144   4.738
  138MYC   2H1328111   4.976   3.284   4.728
  138MYC    C6828112   4.783   3.312   4.629
  138MYC   9H1228113   4.802   3.420   4.625
  138MYC   0H1328114   4.678   3.299   4.656
  138MYC    C6728115   4.819   3.232   4.502
  138MYC   7H1228116   4.769   3.135   4.508
  138MYC   8H1228117   4.927   3.215   4.493
  138MYC    C6628118   4.776   3.298   4.370
  138MYC   5H1228119   4.834   3.390   4.353
  138MYC   6H1228120   4.673   3.331   4.385
  138MYC    C6528121   4.787   3.196   4.256
  138MYC   3H1228122   4.686   3.157   4.244
  138MYC   4H1228123   4.846   3.107   4.281
  138MYC    C6428124   4.833   3.260   4.124
  138MYC   1H1228125   4.943   3.253   4.126
  138MYC   2H1228126   4.813   3.368   4.117
  138MYC    C6328127   4.789   3.199   3.990
  138MYC   9H1128128   4.686   3.234   3.973
  138MYC   0H1228129   4.789   3.089   3.996
  138MYC    C6228130   4.875   3.244   3.871
  138MYC   7H1128131   4.965   3.181   3.874
  138MYC   8H1128132   4.910   3.347   3.887
  138MYC    C6128133   4.814   3.255   3.731
  138MYC   5H1128134   4.741   3.337   3.733
  138MYC   6H1128135   4.754   3.165   3.712
  138MYC    C6028136   4.915   3.262   3.617
  138MYC   4H1128137   5.009   3.210   3.636
  138MYC    C5828138   4.854   3.249   3.479
  138MYC   1H1128139   4.747   3.235   3.473
  138MYC    C5928140   4.906   3.382   3.527
  138MYC   2H1128141   5.002   3.422   3.495
  138MYC   3H1128142   4.831   3.450   3.567
  138MYC    C5728143   4.941   3.178   3.376
  138MYC   9H1028144   4.947   3.071   3.401
  138MYC   0H1128145   5.044   3.215   3.387
  138MYC    C5628146   4.880   3.196   3.237
  138MYC   7H1028147   4.871   3.305   3.227
  138MYC   8H1028148   4.776   3.161   3.228
  138MYC    C5528149   4.978   3.154   3.127
  138MYC   5H1028150   4.986   3.044   3.128
  138MYC   6H1028151   5.082   3.185   3.146
  138MYC    C5428152   4.924   3.191   2.988
  138MYC   3H1028153   4.910   3.299   2.975
  138MYC   4H1028154   4.830   3.136   2.978
  138MYC    C5328155   5.008   3.149   2.866
  138MYC   1H1028156   5.034   3.043   2.875
  138MYC   2H1028157   5.105   3.201   2.857
  138MYC    C5228158   4.943   3.165   2.728
  138MYC    H9928159   4.962   3.269   2.701
  138MYC   0H1028160   4.834   3.161   2.727
  138MYC    C5128161   4.989   3.073   2.612
  138MYC    H9728162   4.972   2.971   2.649
  138MYC    H9828163   5.095   3.087   2.587
  138MYC    C5028164   4.906   3.099   2.485
  138MYC    H9528165   4.858   3.197   2.482
  138MYC    H9628166   4.822   3.029   2.482
  138MYC    C4928167   4.982   3.082   2.353
  138MYC    H9328168   4.994   2.974   2.336
  138MYC    H9428169   5.077   3.137   2.357
  138MYC    C4828170   4.899   3.143   2.239
  138MYC    H9128171   4.865   3.244   2.266
  138MYC    H9228172   4.802   3.092   2.241
  138MYC    C4728173   4.954   3.138   2.095
  138MYC    H8928174   4.956   3.034   2.062
  138MYC    H9028175   5.054   3.180   2.079
  138MYC    C4628176   4.871   3.216   1.993
  138MYC    H8728177   4.865   3.325   2.010
  138MYC    H8828178   4.765   3.189   2.007
  138MYC    C4528179   4.907   3.208   1.844
  138MYC    H8528180   4.857   3.119   1.803
  138MYC    H8628181   5.015   3.193   1.834
  138MYC    C4428182   4.878   3.336   1.764
  138MYC    H8328183   4.888   3.304   1.659
  138MYC    H8428184   4.948   3.417   1.784
  138MYC    C1828185   4.735   3.386   1.776
  138MYC    H3128186   4.702   3.404   1.878
  138MYC    C1728187   4.699   3.492   1.675
  138MYC    H3028188   4.771   3.501   1.594
  138MYC    C1928189   4.620   3.364   1.681
  138MYC    H3228190   4.639   3.296   1.599
  138MYC    H3328191   4.516   3.379   1.709
  138MYC    C1628192   4.646   3.630   1.712
  138MYC    H2828193   4.553   3.631   1.771
  138MYC    H2928194   4.609   3.670   1.617
  138MYC    C1528195   4.766   3.705   1.771
  138MYC    H2628196   4.752   3.809   1.737
  138MYC    H2728197   4.867   3.666   1.750
  138MYC    C1428198   4.751   3.712   1.923
  138MYC    H2428199   4.769   3.613   1.968
  138MYC    H2528200   4.653   3.746   1.959
  138MYC    C1328201   4.864   3.799   1.980
  138MYC    H2228202   4.848   3.904   1.953
  138MYC    H2328203   4.962   3.770   1.939
  138MYC    C1228204   4.884   3.779   2.131
  138MYC    H2028205   4.956   3.847   2.179
  138MYC    H2128206   4.911   3.679   2.168
  138MYC    C1128207   4.756   3.813   2.210
  138MYC    H1828208   4.695   3.721   2.206
  138MYC    H1928209   4.696   3.890   2.159
  138MYC    C1028210   4.760   3.855   2.358
  138MYC    H1628211   4.658   3.841   2.397
  138MYC    H1728212   4.788   3.960   2.374
  138MYC     C928213   4.846   3.769   2.452
  138MYC    H1428214   4.952   3.774   2.426
  138MYC    H1528215   4.819   3.669   2.417
  138MYC     C828216   4.831   3.781   2.605
  138MYC    H1228217   4.727   3.792   2.636
  138MYC    H1328218   4.875   3.873   2.647
  138MYC     C728219   4.881   3.666   2.694
  138MYC    H1028220   4.988   3.651   2.678
  138MYC    H1128221   4.842   3.568   2.664
  138MYC     C628222   4.847   3.688   2.843
  138MYC     H828223   4.737   3.685   2.848
  138MYC     H928224   4.868   3.791   2.873
  138MYC     C528225   4.931   3.603   2.940
  138MYC     H628226   5.023   3.655   2.968
  138MYC     H728227   4.959   3.507   2.895
  138MYC     C428228   4.862   3.569   3.073
  138MYC     H428229   4.927   3.501   3.128
  138MYC     H528230   4.769   3.516   3.050
  138MYC     C228231   4.837   3.678   3.180
  138MYC     H228232   4.881   3.629   3.268
  138MYC     O328233   4.901   3.803   3.155
  138MYC     H328234   4.898   3.818   3.059
  138MYC     C128235   4.690   3.701   3.218
  138MYC     H128236   4.652   3.603   3.249
  138MYC    C8128237   4.600   3.764   3.113
  138MYC    O8228238   4.634   3.827   3.014
  138MYC    O8328239   4.474   3.717   3.118
  138MYC   6H1528240   4.434   3.773   3.049
  138MYC    C2028241   4.676   3.781   3.348
  138MYC    H3428242   4.722   3.880   3.339
  138MYC    H3528243   4.572   3.807   3.373
  138MYC    C2128244   4.733   3.710   3.472
  138MYC    H3628245   4.713   3.602   3.478
  138MYC    H3728246   4.842   3.719   3.469
  138MYC    C2228247   4.683   3.775   3.603
  138MYC    H3828248   4.712   3.881   3.601
  138MYC    H3928249   4.574   3.771   3.606
  138MYC    C2328250   4.743   3.713   3.730
  138MYC    H4028251   4.706   3.611   3.741
  138MYC    H4128252   4.853   3.721   3.735
  138MYC    C2428253   4.693   3.791   3.853
  138MYC    H4228254   4.732   3.893   3.858
  138MYC    H4328255   4.584   3.806   3.855
  138MYC    C2528256   4.719   3.719   3.987
  138MYC    H4428257   4.663   3.624   3.991
  138MYC    H4528258   4.826   3.697   3.988
  138MYC    C2628259   4.687   3.805   4.110
  138MYC    H4628260   4.760   3.887   4.115
  138MYC    H4728261   4.590   3.853   4.096
  138MYC    C2728262   4.683   3.715   4.235
  138MYC    H4828263   4.606   3.637   4.226
  138MYC    H4928264   4.775   3.657   4.250
  138MYC    C2828265   4.656   3.797   4.363
  138MYC    H5028266   4.718   3.887   4.372
  138MYC    H5128267   4.551   3.827   4.373
  138MYC    C2928268   4.686   3.718   4.491
  138MYC    H5228269   4.646   3.616   4.485
  138MYC    H5328270   4.795   3.703   4.486
  138MYC    C3028271   4.645   3.778   4.626
  138MYC    H5428272   4.680   3.882   4.630
  138MYC    H5528273   4.536   3.778   4.637
  138MYC    C3128274   4.699   3.696   4.745
  138MYC    H5628275   4.676   3.589   4.742
  138MYC    H5728276   4.808   3.685   4.741
  138MYC    C3228277   4.665   3.754   4.884
  138MYC    H5828278   4.707   3.855   4.887
  138MYC    H5928279   4.557   3.770   4.881
  138MYC    C3328280   4.727   3.681   5.004
  138MYC    H6028281   4.693   3.578   4.987
  138MYC    H6128282   4.837   3.678   5.000
  138MYC    C3428283   4.680   3.728   5.143
  138MYC    H6228284   4.681   3.838   5.150
  138MYC    H6328285   4.578   3.688   5.148
  138MYC    C3528286   4.763   3.663   5.255
  138MYC    H6428287   4.736   3.557   5.256
  138MYC    H6528288   4.869   3.673   5.232
  138MYC    C3628289   4.728   3.717   5.395
  138MYC    H6628290   4.751   3.823   5.413
  138MYC    H6728291   4.620   3.714   5.413
  138MYC    C3728292   4.796   3.636   5.507
  138MYC    H6828293   4.773   3.529   5.512
  138MYC    H6928294   4.902   3.625   5.481
  138MYC    C3828295   4.779   3.709   5.642
  138MYC    H7028296   4.807   3.813   5.625
  138MYC    H7128297   4.675   3.711   5.678
  138MYC    C3928298   4.867   3.653   5.755
  138MYC    H7228299   4.869   3.544   5.761
  138MYC    H7328300   4.971   3.685   5.743
  138MYC    C4028301   4.835   3.712   5.893
  138MYC    H7428302   4.844   3.822   5.895
  138MYC    H7528303   4.730   3.684   5.911
  138MYC    C4128304   4.934   3.660   5.999
  138MYC    H7628305   4.941   3.551   5.984
  138MYC    H7728306   5.031   3.708   5.987
  138MYC    C4228307   4.894   3.697   6.143
  138MYC    H7828308   4.901   3.805   6.156
  138MYC    H7928309   4.788   3.671   6.154
  138MYC    C4328310   4.976   3.624   6.251
  138MYC    H8028311   5.058   3.689   6.282
  138MYC    H8128312   5.023   3.532   6.214
  138MYC    H8228313   4.916   3.607   6.342
  139MYC   5H1528314   5.459   4.058   6.040
  139MYC    C8028315   5.376   3.997   6.078
  139MYC   3H1528316   5.417   3.931   6.156
  139MYC   4H1528317   5.303   4.059   6.131
  139MYC    C7928318   5.318   3.902   5.972
  139MYC   1H1528319   5.269   3.821   6.026
  139MYC   2H1528320   5.393   3.861   5.904
  139MYC    C7828321   5.214   3.973   5.884
  139MYC   9H1428322   5.249   4.075   5.859
  139MYC   0H1528323   5.119   3.980   5.939
  139MYC    C7728324   5.191   3.888   5.758
  139MYC   7H1428325   5.148   3.791   5.788
  139MYC   8H1428326   5.283   3.869   5.701
  139MYC    C7628327   5.091   3.961   5.666
  139MYC   5H1428328   5.140   4.059   5.655
  139MYC   6H1428329   4.994   3.980   5.713
  139MYC    C7528330   5.081   3.908   5.522
  139MYC   3H1428331   5.016   3.819   5.520
  139MYC   4H1428332   5.183   3.884   5.490
  139MYC    C7428333   5.033   4.012   5.420
  139MYC   1H1428334   5.077   4.112   5.435
  139MYC   2H1428335   4.925   4.020   5.435
  139MYC    C7328336   5.058   3.963   5.277
  139MYC   9H1328337   5.008   3.866   5.270
  139MYC   0H1428338   5.165   3.943   5.263
  139MYC    C7228339   4.999   4.050   5.165
  139MYC   7H1328340   5.034   4.154   5.171
  139MYC   8H1328341   4.889   4.047   5.171
  139MYC    C7128342   5.017   3.991   5.024
  139MYC   5H1328343   4.954   3.904   5.007
  139MYC   6H1328344   5.121   3.957   5.012
  139MYC    C7028345   4.991   4.092   4.910
  139MYC   3H1328346   5.084   4.147   4.892
  139MYC   4H1328347   4.915   4.160   4.948
  139MYC    C6928348   4.956   4.028   4.774
  139MYC   1H1328349   4.858   3.979   4.778
  139MYC   2H1328350   5.024   3.943   4.762
  139MYC    C6828351   4.971   4.122   4.653
  139MYC   9H1228352   5.077   4.149   4.645
  139MYC   0H1328353   4.926   4.220   4.674
  139MYC    C6728354   4.915   4.061   4.524
  139MYC   7H1228355   4.805   4.066   4.520
  139MYC   8H1228356   4.944   3.955   4.527
  139MYC    C6628357   4.969   4.136   4.401
  139MYC   5H1228358   5.077   4.154   4.411
  139MYC   6H1228359   4.942   4.243   4.399
  139MYC    C6528360   4.940   4.068   4.267
  139MYC   3H1228361   4.834   4.087   4.245
  139MYC   4H1228362   4.956   3.959   4.272
  139MYC    C6428363   5.039   4.120   4.162
  139MYC   1H1228364   5.142   4.103   4.194
  139MYC   2H1228365   5.023   4.229   4.158
  139MYC    C6328366   5.011   4.060   4.023
  139MYC   9H1128367   4.906   4.085   4.004
  139MYC   0H1228368   5.016   3.951   4.034
  139MYC    C6228369   5.103   4.117   3.914
  139MYC   7H1128370   5.200   4.069   3.929
  139MYC   8H1128371   5.113   4.226   3.921
  139MYC    C6128372   5.066   4.076   3.771
  139MYC   5H1128373   4.959   4.091   3.750
  139MYC   6H1128374   5.083   3.968   3.773
  139MYC    C6028375   5.149   4.145   3.664
  139MYC   4H1128376   5.256   4.151   3.683
  139MYC    C5828377   5.109   4.117   3.522
  139MYC   1H1128378   5.026   4.046   3.513
  139MYC    C5928379   5.093   4.256   3.578
  139MYC   2H1128380   5.166   4.332   3.551
  139MYC   3H1128381   4.989   4.282   3.590
  139MYC    C5728382   5.201   4.097   3.402
  139MYC   9H1028383   5.276   4.023   3.432
  139MYC   0H1128384   5.260   4.190   3.396
  139MYC    C5628385   5.134   4.069   3.267
  139MYC   7H1028386   5.082   4.162   3.238
  139MYC   8H1028387   5.074   3.978   3.275
  139MYC    C5528388   5.244   4.048   3.162
  139MYC   5H1028389   5.292   3.952   3.185
  139MYC   6H1028390   5.326   4.121   3.171
  139MYC    C5428391   5.191   4.050   3.018
  139MYC   3H1028392   5.142   4.147   3.000
  139MYC   4H1028393   5.107   3.981   3.005
  139MYC    C5328394   5.299   4.027   2.911
  139MYC   1H1028395   5.351   3.933   2.933
  139MYC   2H1028396   5.370   4.111   2.912
  139MYC    C5228397   5.223   4.030   2.777
  139MYC    H9928398   5.186   4.134   2.777
  139MYC   0H1028399   5.141   3.958   2.777
  139MYC    C5128400   5.308   4.015   2.650
  139MYC    H9728401   5.362   3.919   2.655
  139MYC    H9828402   5.390   4.088   2.644
  139MYC    C5028403   5.228   4.028   2.520
  139MYC    H9528404   5.176   4.125   2.513
  139MYC    H9628405   5.146   3.954   2.519
  139MYC    C4928406   5.314   3.993   2.397
  139MYC    H9328407   5.335   3.885   2.393
  139MYC    H9428408   5.413   4.041   2.407
  139MYC    C4828409   5.245   4.044   2.270
  139MYC    H9128410   5.225   4.151   2.277
  139MYC    H9228411   5.142   4.004   2.264
  139MYC    C4728412   5.311   4.019   2.134
  139MYC    H8928413   5.346   3.915   2.135
  139MYC    H9028414   5.399   4.083   2.121
  139MYC    C4628415   5.220   4.045   2.013
  139MYC    H8728416   5.162   4.135   2.036
  139MYC    H8828417   5.154   3.957   2.014
  139MYC    C4528418   5.278   4.053   1.871
  139MYC    H8528419   5.290   3.951   1.833
  139MYC    H8628420   5.382   4.087   1.885
  139MYC    C4428421   5.206   4.152   1.778
  139MYC    H8328422   5.271   4.173   1.692
  139MYC    H8428423   5.203   4.251   1.826
  139MYC    C1828424   5.066   4.106   1.740
  139MYC    H3128425   5.030   4.032   1.812
  139MYC    C1728426   4.960   4.198   1.685
  139MYC    H3028427   4.996   4.299   1.671
  139MYC    C1928428   5.027   4.097   1.595
  139MYC    H3228429   5.101   4.132   1.523
  139MYC    H3328430   4.967   4.016   1.555
  139MYC    C1628431   4.815   4.177   1.725
  139MYC    H2828432   4.811   4.107   1.810
  139MYC    H2928433   4.759   4.121   1.650
  139MYC    C1528434   4.750   4.308   1.771
  139MYC    H2628435   4.642   4.298   1.785
  139MYC    H2728436   4.744   4.375   1.683
  139MYC    C1428437   4.806   4.374   1.898
  139MYC    H2428438   4.904   4.414   1.869
  139MYC    H2528439   4.832   4.305   1.979
  139MYC    C1328440   4.718   4.492   1.943
  139MYC    H2228441   4.612   4.463   1.939
  139MYC    H2328442   4.728   4.565   1.861
  139MYC    C1228443   4.755   4.536   2.086
  139MYC    H2028444   4.861   4.563   2.079
  139MYC    H2128445   4.755   4.451   2.156
  139MYC    C1128446   4.663   4.647   2.139
  139MYC    H1828447   4.560   4.616   2.156
  139MYC    H1928448   4.657   4.729   2.066
  139MYC    C1028449   4.710   4.709   2.271
  139MYC    H1628450   4.636   4.787   2.294
  139MYC    H1728451   4.806   4.759   2.252
  139MYC     C928452   4.735   4.616   2.392
  139MYC    H1428453   4.814   4.543   2.370
  139MYC    H1528454   4.640   4.566   2.415
  139MYC     C828455   4.769   4.702   2.515
  139MYC    H1228456   4.718   4.799   2.512
  139MYC    H1328457   4.877   4.721   2.515
  139MYC     C728458   4.732   4.641   2.652
  139MYC    H1028459   4.813   4.577   2.688
  139MYC    H1128460   4.641   4.581   2.640
  139MYC     C628461   4.717   4.759   2.750
  139MYC     H828462   4.625   4.813   2.725
  139MYC     H928463   4.799   4.829   2.731
  139MYC     C528464   4.727   4.729   2.900
  139MYC     H628465   4.745   4.821   2.957
  139MYC     H728466   4.819   4.676   2.929
  139MYC     C428467   4.605   4.653   2.955
  139MYC     H428468   4.631   4.547   2.972
  139MYC     H528469   4.528   4.666   2.880
  139MYC     C228470   4.575   4.688   3.102
  139MYC     H228471   4.667   4.668   3.158
  139MYC     O328472   4.539   4.825   3.099
  139MYC     H328473   4.594   4.871   3.033
  139MYC     C128474   4.468   4.597   3.167
  139MYC     H128475   4.507   4.495   3.170
  139MYC    C8128476   4.352   4.588   3.068
  139MYC    O8228477   4.284   4.676   3.019
  139MYC    O8328478   4.341   4.462   3.020
  139MYC   6H1528479   4.266   4.479   2.961
  139MYC    C2028480   4.424   4.649   3.305
  139MYC    H3428481   4.416   4.759   3.310
  139MYC    H3528482   4.329   4.600   3.326
  139MYC    C2128483   4.513   4.608   3.423
  139MYC    H3628484   4.542   4.505   3.401
  139MYC    H3728485   4.602   4.671   3.430
  139MYC    C2228486   4.442   4.636   3.557
  139MYC    H3828487   4.418   4.743   3.560
  139MYC    H3928488   4.349   4.581   3.574
  139MYC    C2328489   4.516   4.599   3.687
  139MYC    H4028490   4.539   4.492   3.694
  139MYC    H4128491   4.611   4.653   3.676
  139MYC    C2428492   4.451   4.646   3.818
  139MYC    H4228493   4.423   4.751   3.806
  139MYC    H4328494   4.349   4.605   3.829
  139MYC    C2528495   4.534   4.624   3.945
  139MYC    H4428496   4.564   4.519   3.955
  139MYC    H4528497   4.627   4.681   3.928
  139MYC    C2628498   4.459   4.671   4.071
  139MYC    H4628499   4.409   4.768   4.068
  139MYC    H4728500   4.373   4.605   4.082
  139MYC    C2728501   4.551   4.655   4.193
  139MYC    H4828502   4.598   4.557   4.206
  139MYC    H4928503   4.630   4.730   4.178
  139MYC    C2828504   4.481   4.693   4.325
  139MYC    H5028505   4.429   4.790   4.324
  139MYC    H5128506   4.404   4.616   4.338
  139MYC    C2928507   4.572   4.695   4.449
  139MYC    H5228508   4.638   4.607   4.446
  139MYC    H5328509   4.636   4.784   4.444
  139MYC    C3028510   4.489   4.695   4.578
  139MYC    H5428511   4.442   4.794   4.574
  139MYC    H5528512   4.415   4.615   4.569
  139MYC    C3128513   4.578   4.676   4.703
  139MYC    H5628514   4.629   4.580   4.697
  139MYC    H5728515   4.644   4.764   4.700
  139MYC    C3228516   4.508   4.669   4.839
  139MYC    H5828517   4.435   4.751   4.840
  139MYC    H5928518   4.452   4.575   4.843
  139MYC    C3328519   4.594   4.696   4.964
  139MYC    H6028520   4.657   4.607   4.973
  139MYC    H6128521   4.661   4.782   4.952
  139MYC    C3428522   4.507   4.691   5.090
  139MYC    H6228523   4.436   4.775   5.091
  139MYC    H6328524   4.436   4.607   5.085
  139MYC    C3528525   4.588   4.689   5.221
  139MYC    H6428526   4.670   4.617   5.209
  139MYC    H6528527   4.641   4.782   5.240
  139MYC    C3628528   4.501   4.631   5.334
  139MYC    H6628529   4.394   4.648   5.317
  139MYC    H6728530   4.507   4.521   5.340
  139MYC    C3728531   4.551   4.697   5.464
  139MYC    H6828532   4.659   4.683   5.472
  139MYC    H6928533   4.528   4.804   5.460
  139MYC    C3828534   4.484   4.640   5.590
  139MYC    H7028535   4.378   4.620   5.569
  139MYC    H7128536   4.527   4.540   5.606
  139MYC    C3928537   4.485   4.727   5.716
  139MYC    H7228538   4.578   4.781   5.738
  139MYC    H7328539   4.409   4.806   5.707
  139MYC    C4028540   4.430   4.648   5.836
  139MYC    H7428541   4.322   4.630   5.835
  139MYC    H7528542   4.470   4.546   5.835
  139MYC    C4128543   4.471   4.724   5.963
  139MYC    H7628544   4.580   4.718   5.972
  139MYC    H7728545   4.440   4.829   5.959
  139MYC    C4228546   4.406   4.664   6.089
  139MYC    H7828547   4.303   4.702   6.098
  139MYC    H7928548   4.406   4.557   6.066
  139MYC    C4328549   4.484   4.695   6.218
  139MYC    H8028550   4.469   4.802   6.239
  139MYC    H8128551   4.591   4.677   6.200
  139MYC    H8228552   4.449   4.635   6.302
  140MYC   5H1528553   4.296   5.143   6.191
  140MYC    C8028554   4.374   5.181   6.124
  140MYC   3H1528555   4.375   5.290   6.126
  140MYC   4H1528556   4.470   5.146   6.164
  140MYC    C7928557   4.347   5.129   5.982
  140MYC   1H1528558   4.249   5.169   5.951
  140MYC   2H1528559   4.337   5.020   5.986
  140MYC    C7828560   4.447   5.166   5.871
  140MYC   9H1428561   4.543   5.114   5.885
  140MYC   0H1528562   4.460   5.275   5.869
  140MYC    C7728563   4.388   5.125   5.734
  140MYC   7H1428564   4.305   5.190   5.705
  140MYC   8H1428565   4.354   5.022   5.748
  140MYC    C7628566   4.487   5.114   5.617
  140MYC   5H1428567   4.549   5.024   5.625
  140MYC   6H1428568   4.561   5.195   5.615
  140MYC    C7528569   4.427   5.102   5.476
  140MYC   3H1428570   4.337   5.165   5.472
  140MYC   4H1428571   4.400   4.995   5.475
  140MYC    C7428572   4.523   5.121   5.358
  140MYC   1H1428573   4.610   5.055   5.359
  140MYC   2H1428574   4.560   5.224   5.360
  140MYC    C7328575   4.438   5.099   5.231
  140MYC   9H1328576   4.349   5.163   5.231
  140MYC   0H1428577   4.391   5.000   5.234
  140MYC    C7228578   4.511   5.118   5.097
  140MYC   7H1328579   4.607   5.065   5.093
  140MYC   8H1328580   4.551   5.220   5.095
  140MYC    C7128581   4.422   5.084   4.976
  140MYC   5H1328582   4.337   5.153   4.985
  140MYC   6H1328583   4.382   4.983   4.993
  140MYC    C7028584   4.484   5.103   4.837
  140MYC   3H1328585   4.568   5.034   4.826
  140MYC   4H1328586   4.533   5.202   4.833
  140MYC    C6928587   4.384   5.082   4.722
  140MYC   1H1328588   4.298   5.148   4.735
  140MYC   2H1328589   4.330   4.988   4.739
  140MYC    C6828590   4.463   5.088   4.590
  140MYC   9H1228591   4.529   5.001   4.580
  140MYC   0H1328592   4.530   5.176   4.593
  140MYC    C6728593   4.368   5.091   4.470
  140MYC   7H1228594   4.290   5.168   4.482
  140MYC   8H1228595   4.308   5.000   4.462
  140MYC    C6628596   4.446   5.112   4.339
  140MYC   5H1228597   4.519   5.031   4.330
  140MYC   6H1228598   4.496   5.209   4.353
  140MYC    C6528599   4.360   5.120   4.212
  140MYC   3H1228600   4.278   5.193   4.219
  140MYC   4H1228601   4.318   5.019   4.208
  140MYC    C6428602   4.445   5.140   4.086
  140MYC   1H1228603   4.512   5.054   4.084
  140MYC   2H1228604   4.500   5.234   4.102
  140MYC    C6328605   4.360   5.152   3.958
  140MYC   9H1128606   4.280   5.226   3.965
  140MYC   0H1228607   4.305   5.059   3.939
  140MYC    C6228608   4.459   5.180   3.843
  140MYC   7H1128609   4.546   5.112   3.844
  140MYC   8H1128610   4.505   5.279   3.852
  140MYC    C6128611   4.392   5.163   3.706
  140MYC   5H1128612   4.299   5.221   3.706
  140MYC   6H1128613   4.348   5.062   3.711
  140MYC    C6028614   4.494   5.158   3.594
  140MYC   4H1128615   4.571   5.082   3.603
  140MYC    C5828616   4.448   5.193   3.455
  140MYC   1H1128617   4.349   5.234   3.438
  140MYC    C5928618   4.555   5.276   3.522
  140MYC   2H1128619   4.656   5.268   3.483
  140MYC   3H1128620   4.523   5.375   3.554
  140MYC    C5728621   4.490   5.097   3.344
  140MYC   9H1028622   4.428   5.007   3.351
  140MYC   0H1128623   4.590   5.054   3.357
  140MYC    C5628624   4.480   5.156   3.202
  140MYC   7H1028625   4.556   5.108   3.139
  140MYC   8H1028626   4.514   5.260   3.205
  140MYC    C5528627   4.347   5.137   3.129
  140MYC   5H1028628   4.278   5.215   3.165
  140MYC   6H1028629   4.309   5.039   3.161
  140MYC    C5428630   4.370   5.138   2.977
  140MYC   3H1028631   4.445   5.061   2.956
  140MYC   4H1028632   4.410   5.236   2.946
  140MYC    C5328633   4.240   5.106   2.901
  140MYC   1H1028634   4.156   5.164   2.941
  140MYC   2H1028635   4.216   4.999   2.915
  140MYC    C5228636   4.245   5.149   2.754
  140MYC    H9928637   4.345   5.191   2.733
  140MYC   0H1028638   4.170   5.227   2.737
  140MYC    C5128639   4.227   5.039   2.649
  140MYC    H9728640   4.124   5.002   2.663
  140MYC    H9828641   4.294   4.958   2.680
  140MYC    C5028642   4.251   5.091   2.506
  140MYC    H9528643   4.349   5.140   2.500
  140MYC    H9628644   4.174   5.168   2.489
  140MYC    C4928645   4.235   4.978   2.404
  140MYC    H9328646   4.131   4.965   2.373
  140MYC    H9428647   4.271   4.883   2.446
  140MYC    C4828648   4.316   5.008   2.276
  140MYC    H9128649   4.422   5.002   2.304
  140MYC    H9228650   4.300   5.112   2.244
  140MYC    C4728651   4.296   4.909   2.161
  140MYC    H8928652   4.196   4.929   2.121
  140MYC    H9028653   4.294   4.806   2.200
  140MYC    C4628654   4.405   4.925   2.053
  140MYC    H8728655   4.500   4.899   2.101
  140MYC    H8828656   4.407   5.030   2.021
  140MYC    C4528657   4.383   4.838   1.928
  140MYC    H8528658   4.293   4.880   1.882
  140MYC    H8628659   4.355   4.734   1.948
  140MYC    C4428660   4.504   4.846   1.833
  140MYC    H8328661   4.478   4.795   1.740
  140MYC    H8428662   4.588   4.789   1.873
  140MYC    C1828663   4.549   4.990   1.813
  140MYC    H3128664   4.588   5.047   1.898
  140MYC    C1728665   4.617   5.028   1.684
  140MYC    H3028666   4.629   4.946   1.614
  140MYC    C1928667   4.478   5.078   1.713
  140MYC    H3228668   4.393   5.026   1.668
  140MYC    H3328669   4.472   5.184   1.735
  140MYC    C1628670   4.737   5.121   1.692
  140MYC    H2828671   4.728   5.188   1.778
  140MYC    H2928672   4.735   5.185   1.603
  140MYC    C1528673   4.879   5.061   1.685
  140MYC    H2628674   4.943   5.138   1.640
  140MYC    H2728675   4.873   4.974   1.618
  140MYC    C1428676   4.937   5.030   1.824
  140MYC    H2428677   5.016   4.955   1.811
  140MYC    H2528678   4.856   4.985   1.883
  140MYC    C1328679   4.979   5.151   1.908
  140MYC    H2228680   4.895   5.222   1.912
  140MYC    H2328681   5.058   5.212   1.863
  140MYC    C1228682   5.028   5.133   2.053
  140MYC    H2028683   5.126   5.085   2.061
  140MYC    H2128684   4.966   5.058   2.104
  140MYC    C1128685   5.014   5.265   2.131
  140MYC    H1828686   4.911   5.300   2.144
  140MYC    H1928687   5.060   5.331   2.057
  140MYC    C1028688   5.081   5.275   2.269
  140MYC    H1628689   5.079   5.381   2.296
  140MYC    H1728690   5.186   5.247   2.249
  140MYC     C928691   5.006   5.190   2.373
  140MYC    H1428692   5.044   5.088   2.368
  140MYC    H1528693   4.899   5.180   2.349
  140MYC     C828694   5.007   5.246   2.517
  140MYC    H1228695   4.957   5.344   2.514
  140MYC    H1328696   5.108   5.260   2.556
  140MYC     C728697   4.928   5.156   2.614
  140MYC    H1028698   4.960   5.051   2.603
  140MYC    H1128699   4.822   5.153   2.587
  140MYC     C628700   4.945   5.197   2.761
  140MYC     H828701   4.919   5.303   2.769
  140MYC     H928702   5.049   5.184   2.794
  140MYC     C528703   4.855   5.124   2.861
  140MYC     H628704   4.889   5.020   2.865
  140MYC     H728705   4.750   5.120   2.827
  140MYC     C428706   4.846   5.178   3.005
  140MYC     H428707   4.742   5.167   3.039
  140MYC     H528708   4.863   5.285   2.989
  140MYC     C228709   4.938   5.122   3.115
  140MYC     H228710   4.870   5.069   3.182
  140MYC     O328711   5.034   5.028   3.069
  140MYC     H328712   5.111   5.060   3.120
  140MYC     C128713   5.019   5.232   3.186
  140MYC     H128714   4.950   5.315   3.200
  140MYC    C8128715   5.132   5.285   3.098
  140MYC    O8228716   5.252   5.261   3.104
  140MYC    O8328717   5.086   5.375   3.009
  140MYC   6H1528718   5.154   5.388   2.941
  140MYC    C2028719   5.074   5.181   3.320
  140MYC    H3428720   5.126   5.085   3.308
  140MYC    H3528721   5.157   5.246   3.351
  140MYC    C2128722   4.973   5.180   3.436
  140MYC    H3628723   4.919   5.276   3.437
  140MYC    H3728724   4.894   5.105   3.427
  140MYC    C2228725   5.038   5.169   3.575
  140MYC    H3828726   5.071   5.067   3.598
  140MYC    H3928727   5.128   5.232   3.575
  140MYC    C2328728   4.940   5.214   3.685
  140MYC    H4028729   4.942   5.323   3.673
  140MYC    H4128730   4.843   5.168   3.662
  140MYC    C2428731   4.981   5.175   3.828
  140MYC    H4228732   4.968   5.068   3.844
  140MYC    H4328733   5.087   5.189   3.852
  140MYC    C2528734   4.895   5.250   3.931
  140MYC    H4428735   4.891   5.358   3.908
  140MYC    H4528736   4.794   5.209   3.923
  140MYC    C2628737   4.953   5.212   4.068
  140MYC    H4628738   4.957   5.104   4.084
  140MYC    H4728739   5.057   5.247   4.074
  140MYC    C2728740   4.877   5.284   4.180
  140MYC    H4828741   4.882   5.393   4.168
  140MYC    H4928742   4.770   5.259   4.175
  140MYC    C2828743   4.928   5.232   4.315
  140MYC    H5028744   4.906   5.124   4.319
  140MYC    H5128745   5.032   5.263   4.325
  140MYC    C2928746   4.853   5.284   4.439
  140MYC    H5228747   4.840   5.393   4.438
  140MYC    H5328748   4.753   5.239   4.449
  140MYC    C3028749   4.929   5.254   4.570
  140MYC    H5428750   4.923   5.146   4.587
  140MYC    H5528751   5.031   5.294   4.563
  140MYC    C3128752   4.880   5.321   4.699
  140MYC    H5628753   4.882   5.430   4.683
  140MYC    H5728754   4.773   5.294   4.708
  140MYC    C3228755   4.962   5.285   4.824
  140MYC    H5828756   4.964   5.176   4.838
  140MYC    H5928757   5.064   5.321   4.807
  140MYC    C3328758   4.902   5.340   4.954
  140MYC    H6028759   4.918   5.448   4.950
  140MYC    H6128760   4.795   5.319   4.966
  140MYC    C3428761   4.963   5.286   5.085
  140MYC    H6228762   4.945   5.178   5.090
  140MYC    H6328763   5.071   5.298   5.098
  140MYC    C3528764   4.897   5.340   5.212
  140MYC    H6428765   4.901   5.450   5.217
  140MYC    H6528766   4.790   5.315   5.212
  140MYC    C3628767   4.953   5.274   5.339
  140MYC    H6628768   4.955   5.165   5.337
  140MYC    H6728769   5.060   5.295   5.346
  140MYC    C3728770   4.874   5.321   5.463
  140MYC    H6828771   4.859   5.429   5.461
  140MYC    H6928772   4.774   5.277   5.464
  140MYC    C3828773   4.938   5.282   5.597
  140MYC    H7028774   4.967   5.176   5.600
  140MYC    H7128775   5.033   5.338   5.604
  140MYC    C3928776   4.859   5.320   5.723
  140MYC    H7228777   4.847   5.429   5.732
  140MYC    H7328778   4.755   5.285   5.713
  140MYC    C4028779   4.913   5.246   5.847
  140MYC    H7428780   4.885   5.140   5.848
  140MYC    H7528781   5.021   5.234   5.835
  140MYC    C4128782   4.861   5.310   5.976
  140MYC    H7628783   4.910   5.408   5.986
  140MYC    H7728784   4.756   5.340   5.966
  140MYC    C4228785   4.877   5.211   6.093
  140MYC    H7828786   4.812   5.124   6.077
  140MYC    H7928787   4.979   5.170   6.089
  140MYC    C4328788   4.867   5.278   6.230
  140MYC    H8028789   4.856   5.201   6.307
  140MYC    H8128790   4.776   5.340   6.232
  140MYC    H8228791   4.953   5.345   6.247
  141MYC   5H1528792   5.439   6.253   6.159
  141MYC    C8028793   5.398   6.208   6.068
  141MYC   3H1528794   5.432   6.105   6.085
  141MYC   4H1528795   5.289   6.202   6.058
  141MYC    C7928796   5.461   6.266   5.940
  141MYC   1H1528797   5.570   6.271   5.953
  141MYC   2H1528798   5.426   6.369   5.930
  141MYC    C7828799   5.429   6.191   5.810
  141MYC   9H1428800   5.320   6.176   5.804
  141MYC   0H1528801   5.485   6.098   5.824
  141MYC    C7728802   5.469   6.265   5.681
  141MYC   7H1428803   5.578   6.255   5.670
  141MYC   8H1428804   5.444   6.372   5.680
  141MYC    C7628805   5.419   6.198   5.551
  141MYC   5H1428806   5.310   6.198   5.559
  141MYC   6H1428807   5.455   6.094   5.542
  141MYC    C7528808   5.459   6.268   5.421
  141MYC   3H1428809   5.568   6.252   5.426
  141MYC   4H1428810   5.433   6.374   5.429
  141MYC    C7428811   5.400   6.212   5.290
  141MYC   1H1428812   5.291   6.222   5.289
  141MYC   2H1428813   5.432   6.108   5.278
  141MYC    C7328814   5.456   6.279   5.164
  141MYC   9H1328815   5.564   6.257   5.156
  141MYC   0H1428816   5.447   6.388   5.171
  141MYC    C7228817   5.378   6.231   5.040
  141MYC   7H1328818   5.278   6.276   5.049
  141MYC   8H1328819   5.366   6.122   5.044
  141MYC    C7128820   5.448   6.268   4.908
  141MYC   5H1328821   5.546   6.218   4.910
  141MYC   6H1328822   5.456   6.378   4.913
  141MYC    C7028823   5.362   6.221   4.790
  141MYC   3H1328824   5.262   6.268   4.794
  141MYC   4H1328825   5.343   6.113   4.792
  141MYC    C6928826   5.438   6.250   4.660
  141MYC   1H1328827   5.520   6.179   4.647
  141MYC   2H1328828   5.487   6.348   4.670
  141MYC    C6828829   5.350   6.229   4.536
  141MYC   9H1228830   5.267   6.299   4.522
  141MYC   0H1328831   5.308   6.129   4.552
  141MYC    C6728832   5.432   6.248   4.407
  141MYC   7H1228833   5.515   6.176   4.408
  141MYC   8H1228834   5.478   6.348   4.411
  141MYC    C6628835   5.347   6.218   4.283
  141MYC   5H1228836   5.251   6.271   4.290
  141MYC   6H1228837   5.334   6.109   4.283
  141MYC    C6528838   5.426   6.261   4.158
  141MYC   3H1228839   5.518   6.202   4.149
  141MYC   4H1228840   5.455   6.366   4.165
  141MYC    C6428841   5.350   6.238   4.026
  141MYC   1H1228842   5.262   6.305   4.029
  141MYC   2H1228843   5.315   6.134   4.024
  141MYC    C6328844   5.438   6.265   3.903
  141MYC   9H1128845   5.535   6.214   3.914
  141MYC   0H1228846   5.463   6.372   3.904
  141MYC    C6228847   5.365   6.229   3.773
  141MYC   7H1128848   5.272   6.286   3.775
  141MYC   8H1128849   5.339   6.122   3.777
  141MYC    C6128850   5.450   6.256   3.647
  141MYC   5H1128851   5.532   6.185   3.635
  141MYC   6H1128852   5.487   6.359   3.657
  141MYC    C6028853   5.367   6.254   3.519
  141MYC   4H1128854   5.273   6.307   3.533
  141MYC    C5828855   5.427   6.258   3.381
  141MYC   1H1128856   5.536   6.263   3.379
  141MYC    C5928857   5.365   6.131   3.433
  141MYC   2H1128858   5.264   6.113   3.399
  141MYC   3H1128859   5.423   6.043   3.461
  141MYC    C5728860   5.356   6.336   3.271
  141MYC   9H1028861   5.399   6.437   3.266
  141MYC   0H1128862   5.248   6.336   3.287
  141MYC    C5628863   5.386   6.272   3.135
  141MYC   7H1028864   5.386   6.163   3.148
  141MYC   8H1028865   5.492   6.295   3.121
  141MYC    C5528866   5.303   6.321   3.016
  141MYC   5H1028867   5.317   6.430   3.007
  141MYC   6H1028868   5.199   6.304   3.045
  141MYC    C5428869   5.331   6.251   2.882
  141MYC   3H1028870   5.327   6.142   2.900
  141MYC   4H1028871   5.438   6.260   2.859
  141MYC    C5328872   5.243   6.300   2.767
  141MYC   1H1028873   5.275   6.402   2.741
  141MYC   2H1028874   5.142   6.307   2.811
  141MYC    C5228875   5.246   6.210   2.642
  141MYC    H9928876   5.188   6.123   2.676
  141MYC   0H1028877   5.348   6.177   2.620
  141MYC    C5128878   5.177   6.274   2.520
  141MYC    H9728879   5.243   6.355   2.488
  141MYC    H9828880   5.081   6.322   2.544
  141MYC    C5028881   5.154   6.174   2.406
  141MYC    H9528882   5.109   6.081   2.444
  141MYC    H9628883   5.255   6.157   2.367
  141MYC    C4928884   5.074   6.226   2.285
  141MYC    H9328885   5.067   6.334   2.270
  141MYC    H9428886   4.966   6.207   2.293
  141MYC    C4828887   5.122   6.166   2.152
  141MYC    H9128888   5.107   6.058   2.165
  141MYC    H9228889   5.231   6.175   2.146
  141MYC    C4728890   5.044   6.215   2.029
  141MYC    H8928891   5.032   6.324   2.036
  141MYC    H9028892   4.943   6.173   2.032
  141MYC    C4628893   5.119   6.181   1.899
  141MYC    H8728894   5.134   6.072   1.899
  141MYC    H8828895   5.217   6.228   1.888
  141MYC    C4528896   5.044   6.218   1.769
  141MYC    H8528897   5.091   6.178   1.678
  141MYC    H8628898   5.069   6.323   1.755
  141MYC    C4428899   4.893   6.189   1.773
  141MYC    H8328900   4.864   6.236   1.678
  141MYC    H8428901   4.840   6.248   1.848
  141MYC    C1828902   4.850   6.043   1.765
  141MYC    H3128903   4.929   5.973   1.792
  141MYC    C1728904   4.708   5.997   1.784
  141MYC    H3028905   4.619   6.056   1.805
  141MYC    C1928906   4.766   6.007   1.645
  141MYC    H3228907   4.715   6.085   1.589
  141MYC    H3328908   4.788   5.916   1.590
  141MYC    C1628909   4.667   5.860   1.837
  141MYC    H2828910   4.747   5.786   1.832
  141MYC    H2928911   4.592   5.819   1.769
  141MYC    C1528912   4.619   5.866   1.983
  141MYC    H2628913   4.623   5.770   2.037
  141MYC    H2728914   4.515   5.901   1.974
  141MYC    C1428915   4.674   5.976   2.075
  141MYC    H2428916   4.640   6.073   2.038
  141MYC    H2528917   4.784   5.967   2.080
  141MYC    C1328918   4.616   5.958   2.216
  141MYC    H2228919   4.661   5.875   2.270
  141MYC    H2328920   4.509   5.934   2.205
  141MYC    C1228921   4.616   6.091   2.294
  141MYC    H2028922   4.538   6.159   2.259
  141MYC    H2128923   4.709   6.142   2.266
  141MYC    C1128924   4.590   6.077   2.445
  141MYC    H1828925   4.497   6.020   2.452
  141MYC    H1928926   4.569   6.180   2.476
  141MYC    C1028927   4.704   6.019   2.531
  141MYC    H1628928   4.686   6.056   2.632
  141MYC    H1728929   4.798   6.057   2.491
  141MYC     C928930   4.729   5.867   2.527
  141MYC    H1428931   4.808   5.832   2.459
  141MYC    H1528932   4.642   5.816   2.485
  141MYC     C828933   4.756   5.820   2.671
  141MYC    H1228934   4.735   5.713   2.676
  141MYC    H1328935   4.678   5.862   2.736
  141MYC     C728936   4.896   5.863   2.719
  141MYC    H1028937   4.898   5.971   2.736
  141MYC    H1128938   4.962   5.851   2.632
  141MYC     C628939   4.949   5.790   2.844
  141MYC     H828940   5.051   5.830   2.851
  141MYC     H928941   4.944   5.681   2.836
  141MYC     C528942   4.874   5.838   2.969
  141MYC     H628943   4.765   5.827   2.963
  141MYC     H728944   4.907   5.942   2.987
  141MYC     C428945   4.928   5.756   3.087
  141MYC     H428946   5.027   5.794   3.118
  141MYC     H528947   4.943   5.652   3.057
  141MYC     C228948   4.840   5.761   3.213
  141MYC     H228949   4.912   5.768   3.296
  141MYC     O328950   4.757   5.875   3.228
  141MYC     H328951   4.733   5.908   3.140
  141MYC     C128952   4.753   5.636   3.227
  141MYC     H128953   4.820   5.549   3.227
  141MYC    C8128954   4.664   5.608   3.106
  141MYC    O8228955   4.560   5.667   3.084
  141MYC    O8328956   4.706   5.510   3.023
  141MYC   6H1528957   4.650   5.510   2.943
  141MYC    C2028958   4.671   5.628   3.357
  141MYC    H3428959   4.592   5.703   3.362
  141MYC    H3528960   4.626   5.529   3.369
  141MYC    C2128961   4.761   5.632   3.482
  141MYC    H3628962   4.824   5.543   3.474
  141MYC    H3728963   4.833   5.714   3.493
  141MYC    C2228964   4.681   5.651   3.612
  141MYC    H3828965   4.646   5.755   3.603
  141MYC    H3928966   4.593   5.584   3.618
  141MYC    C2328967   4.765   5.640   3.740
  141MYC    H4028968   4.757   5.536   3.775
  141MYC    H4128969   4.873   5.657   3.727
  141MYC    C2428970   4.729   5.722   3.865
  141MYC    H4228971   4.743   5.828   3.840
  141MYC    H4328972   4.623   5.710   3.891
  141MYC    C2528973   4.805   5.688   3.994
  141MYC    H4428974   4.840   5.584   3.984
  141MYC    H4528975   4.895   5.748   4.010
  141MYC    C2628976   4.719   5.706   4.121
  141MYC    H4628977   4.644   5.782   4.099
  141MYC    H4728978   4.654   5.619   4.138
  141MYC    C2728979   4.797   5.726   4.252
  141MYC    H4828980   4.892   5.672   4.250
  141MYC    H4928981   4.829   5.830   4.261
  141MYC    C2828982   4.708   5.694   4.373
  141MYC    H5028983   4.607   5.738   4.370
  141MYC    H5128984   4.692   5.586   4.379
  141MYC    C2928985   4.773   5.734   4.507
  141MYC    H5228986   4.863   5.674   4.520
  141MYC    H5328987   4.801   5.840   4.505
  141MYC    C3028988   4.686   5.711   4.631
  141MYC    H5428989   4.585   5.750   4.613
  141MYC    H5528990   4.677   5.603   4.643
  141MYC    C3128991   4.757   5.770   4.755
  141MYC    H5628992   4.865   5.750   4.756
  141MYC    H5728993   4.759   5.879   4.749
  141MYC    C3228994   4.686   5.722   4.883
  141MYC    H5828995   4.583   5.757   4.881
  141MYC    H5928996   4.683   5.612   4.880
  141MYC    C3328997   4.757   5.765   5.012
  141MYC    H6028998   4.867   5.757   5.013
  141MYC    H6128999   4.737   5.871   5.035
  141MYC    C3429000   4.710   5.687   5.136
  141MYC    H6229001   4.600   5.687   5.140
  141MYC    H6329002   4.731   5.581   5.117
  141MYC    C3529003   4.766   5.730   5.272
  141MYC    H6429004   4.875   5.725   5.290
  141MYC    H6529005   4.758   5.840   5.277
  141MYC    C3629006   4.685   5.679   5.392
  141MYC    H6629007   4.579   5.675   5.366
  141MYC    H6729008   4.718   5.575   5.401
  141MYC    C3729009   4.717   5.745   5.528
  141MYC    H6829010   4.825   5.738   5.545
  141MYC    H6929011   4.690   5.851   5.526
  141MYC    C3829012   4.649   5.669   5.643
  141MYC    H7029013   4.548   5.633   5.618
  141MYC    H7129014   4.692   5.568   5.650
  141MYC    C3929015   4.654   5.724   5.787
  141MYC    H7229016   4.753   5.769   5.802
  141MYC    H7329017   4.577   5.801   5.789
  141MYC    C4029018   4.623   5.623   5.899
  141MYC    H7429019   4.565   5.545   5.848
  141MYC    H7529020   4.726   5.593   5.918
  141MYC    C4129021   4.561   5.678   6.029
  141MYC    H7629022   4.606   5.775   6.052
  141MYC    H7729023   4.454   5.690   6.008
  141MYC    C4229024   4.571   5.583   6.149
  141MYC    H7829025   4.562   5.479   6.115
  141MYC    H7929026   4.673   5.581   6.188
  141MYC    C4329027   4.465   5.617   6.256
  141MYC    H8029028   4.463   5.548   6.341
  141MYC    H8129029   4.369   5.627   6.203
  141MYC    H8229030   4.498   5.711   6.302
  142MYC   5H1529031   5.430   0.467   6.080
  142MYC    C8029032   5.521   0.436   6.028
  142MYC   3H1529033   5.607   0.469   6.087
  142MYC   4H1529034   5.519   0.327   6.022
  142MYC    C7929035   5.529   0.511   5.894
  142MYC   1H1529036   5.630   0.538   5.858
  142MYC   2H1529037   5.470   0.603   5.906
  142MYC    C7829038   5.470   0.426   5.780
  142MYC   9H1429039   5.362   0.408   5.788
  142MYC   0H1529040   5.527   0.332   5.774
  142MYC    C7729041   5.486   0.497   5.645
  142MYC   7H1429042   5.592   0.514   5.625
  142MYC   8H1429043   5.452   0.601   5.656
  142MYC    C7629044   5.413   0.426   5.530
  142MYC   5H1429045   5.305   0.446   5.530
  142MYC   6H1429046   5.409   0.317   5.547
  142MYC    C7529047   5.471   0.450   5.389
  142MYC   3H1429048   5.579   0.430   5.399
  142MYC   4H1429049   5.461   0.555   5.361
  142MYC    C7429050   5.408   0.358   5.283
  142MYC   1H1429051   5.300   0.373   5.286
  142MYC   2H1429052   5.437   0.255   5.308
  142MYC    C7329053   5.473   0.389   5.147
  142MYC   9H1329054   5.580   0.389   5.169
  142MYC   0H1429055   5.442   0.489   5.115
  142MYC    C7229056   5.439   0.287   5.037
  142MYC   7H1329057   5.330   0.276   5.042
  142MYC   8H1329058   5.467   0.187   5.073
  142MYC    C7129059   5.507   0.310   4.901
  142MYC   5H1329060   5.594   0.245   4.887
  142MYC   6H1329061   5.551   0.410   4.897
  142MYC    C7029062   5.407   0.291   4.785
  142MYC   3H1329063   5.330   0.369   4.790
  142MYC   4H1329064   5.352   0.196   4.793
  142MYC    C6929065   5.474   0.309   4.648
  142MYC   1H1329066   5.558   0.238   4.648
  142MYC   2H1329067   5.521   0.407   4.633
  142MYC    C6829068   5.380   0.280   4.530
  142MYC   9H1229069   5.274   0.292   4.554
  142MYC   0H1329070   5.388   0.171   4.518
  142MYC    C6729071   5.424   0.348   4.399
  142MYC   7H1229072   5.505   0.293   4.350
  142MYC   8H1229073   5.479   0.440   4.419
  142MYC    C6629074   5.308   0.365   4.299
  142MYC   5H1229075   5.244   0.451   4.321
  142MYC   6H1229076   5.238   0.280   4.294
  142MYC    C6529077   5.373   0.376   4.160
  142MYC   3H1229078   5.428   0.281   4.159
  142MYC   4H1229079   5.454   0.448   4.144
  142MYC    C6429080   5.269   0.372   4.047
  142MYC   1H1229081   5.220   0.470   4.056
  142MYC   2H1229082   5.196   0.291   4.053
  142MYC    C6329083   5.351   0.365   3.917
  142MYC   9H1129084   5.422   0.283   3.900
  142MYC   0H1229085   5.415   0.454   3.925
  142MYC    C6229086   5.258   0.378   3.796
  142MYC   7H1129087   5.184   0.459   3.800
  142MYC   8H1129088   5.198   0.286   3.798
  142MYC    C6129089   5.335   0.386   3.663
  142MYC   5H1129090   5.421   0.319   3.677
  142MYC   6H1129091   5.379   0.485   3.645
  142MYC    C6029092   5.246   0.351   3.544
  142MYC   4H1129093   5.146   0.395   3.539
  142MYC    C5829094   5.320   0.326   3.415
  142MYC   1H1129095   5.428   0.334   3.425
  142MYC    C5929096   5.261   0.211   3.492
  142MYC   2H1129097   5.178   0.158   3.447
  142MYC   3H1129098   5.331   0.141   3.538
  142MYC    C5729099   5.261   0.375   3.284
  142MYC   9H1029100   5.159   0.413   3.298
  142MYC   0H1129101   5.235   0.300   3.209
  142MYC    C5629102   5.351   0.486   3.225
  142MYC   7H1029103   5.456   0.457   3.220
  142MYC   8H1029104   5.345   0.577   3.286
  142MYC    C5529105   5.309   0.524   3.082
  142MYC   5H1029106   5.200   0.537   3.085
  142MYC   6H1029107   5.331   0.441   3.013
  142MYC    C5429108   5.361   0.659   3.030
  142MYC   3H1029109   5.465   0.669   3.060
  142MYC   4H1029110   5.313   0.742   3.083
  142MYC    C5329111   5.340   0.682   2.879
  142MYC   1H1029112   5.363   0.787   2.860
  142MYC   2H1029113   5.238   0.656   2.850
  142MYC    C5229114   5.446   0.605   2.798
  142MYC    H9929115   5.419   0.499   2.798
  142MYC   0H1029116   5.546   0.626   2.837
  142MYC    C5129117   5.443   0.659   2.654
  142MYC    H9729118   5.472   0.764   2.648
  142MYC    H9829119   5.340   0.664   2.615
  142MYC    C5029120   5.517   0.555   2.567
  142MYC    H9529121   5.496   0.454   2.604
  142MYC    H9629122   5.625   0.563   2.582
  142MYC    C4929123   5.472   0.576   2.421
  142MYC    H9329124   5.490   0.681   2.395
  142MYC    H9429125   5.366   0.554   2.401
  142MYC    C4829126   5.558   0.490   2.327
  142MYC    H9129127   5.541   0.384   2.348
  142MYC    H9229128   5.662   0.522   2.341
  142MYC    C4729129   5.518   0.522   2.182
  142MYC    H8929130   5.585   0.604   2.155
  142MYC    H9029131   5.413   0.555   2.177
  142MYC    C4629132   5.535   0.397   2.094
  142MYC    H8729133   5.459   0.322   2.117
  142MYC    H8829134   5.634   0.354   2.112
  142MYC    C4529135   5.522   0.437   1.946
  142MYC    H8529136   5.608   0.501   1.924
  142MYC    H8629137   5.429   0.491   1.926
  142MYC    C4429138   5.538   0.324   1.843
  142MYC    H8329139   5.491   0.341   1.745
  142MYC    H8429140   5.487   0.233   1.878
  142MYC    C1829141   5.686   0.300   1.817
  142MYC    H3129142   5.740   0.290   1.911
  142MYC    C1729143   5.733   0.227   1.694
  142MYC    H3029144   5.672   0.195   1.610
  142MYC    C1929145   5.754   0.376   1.706
  142MYC    H3229146   5.689   0.440   1.648
  142MYC    H3329147   5.851   0.419   1.731
  142MYC    C1629148   5.853   0.137   1.718
  142MYC    H2829149   5.894   0.167   1.815
  142MYC    H2929150   5.922   0.153   1.634
  142MYC    C1529151   5.813  -0.012   1.727
  142MYC    H2629152   5.909  -0.065   1.736
  142MYC    H2729153   5.771  -0.044   1.631
  142MYC    C1429154   5.728  -0.046   1.850
  142MYC    H2429155   5.684  -0.146   1.841
  142MYC    H2529156   5.643   0.022   1.862
  142MYC    C1329157   5.815  -0.047   1.978
  142MYC    H2229158   5.886   0.036   1.982
  142MYC    H2329159   5.871  -0.140   1.988
  142MYC    C1229160   5.720  -0.026   2.097
  142MYC    H2029161   5.679  -0.125   2.120
  142MYC    H2129162   5.632   0.038   2.081
  142MYC    C1129163   5.796   0.015   2.225
  142MYC    H1829164   5.846   0.109   2.202
  142MYC    H1929165   5.875  -0.057   2.252
  142MYC    C1029166   5.700   0.033   2.343
  142MYC    H1629167   5.609  -0.030   2.335
  142MYC    H1729168   5.669   0.137   2.329
  142MYC     C929169   5.775   0.021   2.477
  142MYC    H1429170   5.864   0.085   2.474
  142MYC    H1529171   5.806  -0.079   2.509
  142MYC     C829172   5.677   0.079   2.580
  142MYC    H1229173   5.609   0.001   2.615
  142MYC    H1329174   5.613   0.160   2.543
  142MYC     C729175   5.740   0.134   2.709
  142MYC    H1029176   5.794   0.226   2.682
  142MYC    H1129177   5.813   0.062   2.747
  142MYC     C629178   5.634   0.167   2.816
  142MYC     H829179   5.590   0.077   2.860
  142MYC     H929180   5.541   0.201   2.767
  142MYC     C529181   5.676   0.285   2.905
  142MYC     H629182   5.582   0.337   2.929
  142MYC     H729183   5.731   0.359   2.846
  142MYC     C429184   5.767   0.246   3.022
  142MYC     H429185   5.817   0.337   3.058
  142MYC     H529186   5.844   0.174   2.991
  142MYC     C229187   5.695   0.199   3.149
  142MYC     H229188   5.624   0.279   3.175
  142MYC     O329189   5.609   0.088   3.128
  142MYC     H329190   5.522   0.108   3.090
  142MYC     C129191   5.787   0.173   3.270
  142MYC     H129192   5.859   0.253   3.251
  142MYC    C8129193   5.857   0.038   3.262
  142MYC    O8229194   5.838  -0.064   3.326
  142MYC    O8329195   5.965   0.053   3.182
  142MYC   6H1529196   6.008  -0.034   3.186
  142MYC    C2029197   5.723   0.214   3.404
  142MYC    H3429198   5.709   0.322   3.407
  142MYC    H3529199   5.621   0.173   3.408
  142MYC    C2129200   5.813   0.193   3.527
  142MYC    H3629201   5.841   0.087   3.531
  142MYC    H3729202   5.908   0.240   3.500
  142MYC    C2229203   5.749   0.250   3.655
  142MYC    H3829204   5.731   0.358   3.648
  142MYC    H3929205   5.646   0.218   3.679
  142MYC    C2329206   5.832   0.236   3.783
  142MYC    H4029207   5.939   0.249   3.762
  142MYC    H4129208   5.806   0.315   3.854
  142MYC    C2429209   5.817   0.102   3.857
  142MYC    H4229210   5.708   0.087   3.863
  142MYC    H4329211   5.855   0.017   3.798
  142MYC    C2529212   5.887   0.106   3.994
  142MYC    H4429213   5.995   0.107   3.978
  142MYC    H4529214   5.865   0.199   4.048
  142MYC    C2629215   5.848  -0.010   4.087
  142MYC    H4629216   5.741   0.002   4.109
  142MYC    H4729217   5.871  -0.110   4.050
  142MYC    C2729218   5.924   0.008   4.220
  142MYC    H4829219   6.023  -0.037   4.208
  142MYC    H4929220   5.951   0.113   4.237
  142MYC    C2829221   5.852  -0.048   4.343
  142MYC    H5029222   5.750  -0.007   4.341
  142MYC    H5129223   5.848  -0.157   4.340
  142MYC    C2929224   5.912  -0.007   4.479
  142MYC    H5229225   6.014  -0.047   4.485
  142MYC    H5329226   5.920   0.102   4.484
  142MYC    C3029227   5.825  -0.049   4.599
  142MYC    H5429228   5.726  -0.001   4.597
  142MYC    H5529229   5.816  -0.158   4.603
  142MYC    C3129230   5.898   0.003   4.724
  142MYC    H5629231   6.005  -0.023   4.718
  142MYC    H5729232   5.896   0.112   4.733
  142MYC    C3229233   5.832  -0.038   4.856
  142MYC    H5829234   5.736   0.014   4.850
  142MYC    H5929235   5.811  -0.146   4.858
  142MYC    C3329236   5.913  -0.009   4.984
  142MYC    H6029237   6.008  -0.063   4.980
  142MYC    H6129238   5.936   0.098   4.993
  142MYC    C3429239   5.832  -0.042   5.110
  142MYC    H6229240   5.730  -0.002   5.104
  142MYC    H6329241   5.828  -0.151   5.100
  142MYC    C3529242   5.897   0.005   5.242
  142MYC    H6429243   6.005  -0.016   5.248
  142MYC    H6529244   5.886   0.114   5.250
  142MYC    C3629245   5.827  -0.049   5.367
  142MYC    H6629246   5.725  -0.010   5.379
  142MYC    H6729247   5.817  -0.158   5.356
  142MYC    C3729248   5.905  -0.007   5.493
  142MYC    H6829249   6.003  -0.058   5.491
  142MYC    H6929250   5.916   0.102   5.493
  142MYC    C3829251   5.845  -0.053   5.627
  142MYC    H7029252   5.748  -0.002   5.638
  142MYC    H7129253   5.829  -0.161   5.637
  142MYC    C3929254   5.940  -0.011   5.741
  142MYC    H7229255   6.041  -0.050   5.730
  142MYC    H7329256   5.939   0.099   5.741
  142MYC    C4029257   5.887  -0.060   5.876
  142MYC    H7429258   5.785  -0.020   5.876
  142MYC    H7529259   5.880  -0.169   5.886
  142MYC    C4129260   5.953  -0.002   6.002
  142MYC    H7629261   6.058  -0.031   6.012
  142MYC    H7729262   5.957   0.108   5.993
  142MYC    C4229263   5.875  -0.036   6.131
  142MYC    H7829264   5.845   0.052   6.189
  142MYC    H7929265   5.777  -0.079   6.108
  142MYC    C4329266   5.957  -0.124   6.226
  142MYC    H8029267   5.880  -0.169   6.290
  142MYC    H8129268   6.025  -0.071   6.294
  142MYC    H8229269   6.007  -0.204   6.169
  143MYC   5H1529270   5.632   1.397   6.193
  143MYC    C8029271   5.678   1.343   6.109
  143MYC   3H1529272   5.786   1.360   6.119
  143MYC   4H1529273   5.656   1.237   6.126
  143MYC    C7929274   5.620   1.400   5.979
  143MYC   1H1529275   5.643   1.507   5.986
  143MYC   2H1529276   5.512   1.383   5.980
  143MYC    C7829277   5.692   1.324   5.866
  143MYC   9H1429278   5.663   1.219   5.871
  143MYC   0H1529279   5.799   1.338   5.885
  143MYC    C7729280   5.660   1.382   5.727
  143MYC   7H1429281   5.659   1.492   5.736
  143MYC   8H1429282   5.558   1.351   5.702
  143MYC    C7629283   5.762   1.344   5.619
  143MYC   5H1429284   5.767   1.235   5.608
  143MYC   6H1429285   5.857   1.382   5.658
  143MYC    C7529286   5.718   1.411   5.487
  143MYC   3H1429287   5.693   1.515   5.509
  143MYC   4H1429288   5.630   1.356   5.450
  143MYC    C7429289   5.826   1.404   5.378
  143MYC   1H1429290   5.847   1.296   5.368
  143MYC   2H1429291   5.918   1.453   5.412
  143MYC    C7329292   5.771   1.458   5.245
  143MYC   9H1329293   5.830   1.549   5.227
  143MYC   0H1429294   5.667   1.490   5.259
  143MYC    C7229295   5.790   1.360   5.128
  143MYC   7H1329296   5.734   1.269   5.152
  143MYC   8H1329297   5.894   1.327   5.121
  143MYC    C7129298   5.740   1.422   4.996
  143MYC   5H1329299   5.784   1.523   4.990
  143MYC   6H1329300   5.632   1.443   4.995
  143MYC    C7029301   5.765   1.341   4.868
  143MYC   3H1329302   5.714   1.243   4.869
  143MYC   4H1329303   5.873   1.326   4.874
  143MYC    C6929304   5.726   1.416   4.740
  143MYC   1H1329305   5.811   1.471   4.697
  143MYC   2H1329306   5.653   1.495   4.759
  143MYC    C6829307   5.682   1.322   4.627
  143MYC   9H1229308   5.575   1.299   4.639
  143MYC   0H1329309   5.740   1.228   4.630
  143MYC    C6729310   5.698   1.390   4.490
  143MYC   7H1229311   5.806   1.405   4.476
  143MYC   8H1229312   5.648   1.488   4.490
  143MYC    C6629313   5.654   1.298   4.375
  143MYC   5H1229314   5.551   1.261   4.387
  143MYC   6H1229315   5.723   1.213   4.364
  143MYC    C6529316   5.666   1.371   4.241
  143MYC   3H1229317   5.760   1.425   4.225
  143MYC   4H1229318   5.596   1.455   4.249
  143MYC    C6429319   5.641   1.278   4.121
  143MYC   1H1229320   5.540   1.234   4.130
  143MYC   2H1229321   5.726   1.209   4.119
  143MYC    C6329322   5.626   1.346   3.984
  143MYC   9H1129323   5.721   1.393   3.955
  143MYC   0H1229324   5.553   1.427   3.994
  143MYC    C6229325   5.590   1.244   3.874
  143MYC   7H1129326   5.492   1.200   3.894
  143MYC   8H1129327   5.669   1.167   3.880
  143MYC    C6129328   5.577   1.307   3.734
  143MYC   5H1129329   5.676   1.333   3.695
  143MYC   6H1129330   5.519   1.400   3.732
  143MYC    C6029331   5.509   1.211   3.638
  143MYC   4H1129332   5.407   1.185   3.665
  143MYC    C5829333   5.543   1.229   3.492
  143MYC   1H1129334   5.617   1.305   3.470
  143MYC    C5929335   5.589   1.105   3.566
  143MYC   2H1129336   5.538   1.011   3.546
  143MYC   3H1129337   5.694   1.099   3.590
  143MYC    C5729338   5.441   1.210   3.380
  143MYC   9H1029339   5.391   1.307   3.369
  143MYC   0H1129340   5.365   1.133   3.398
  143MYC    C5629341   5.520   1.191   3.250
  143MYC   7H1029342   5.573   1.095   3.263
  143MYC   8H1029343   5.587   1.277   3.240
  143MYC    C5529344   5.422   1.181   3.132
  143MYC   5H1029345   5.339   1.253   3.131
  143MYC   6H1029346   5.377   1.081   3.139
  143MYC    C5429347   5.496   1.184   2.997
  143MYC   3H1029348   5.569   1.104   2.981
  143MYC   4H1029349   5.561   1.272   2.993
  143MYC    C5329350   5.404   1.202   2.875
  143MYC   1H1029351   5.356   1.299   2.888
  143MYC   2H1029352   5.323   1.128   2.878
  143MYC    C5229353   5.477   1.201   2.739
  143MYC    H9929354   5.507   1.102   2.704
  143MYC   0H1029355   5.571   1.253   2.763
  143MYC    C5129356   5.410   1.282   2.627
  143MYC    H9729357   5.376   1.375   2.676
  143MYC    H9829358   5.319   1.230   2.596
  143MYC    C5029359   5.494   1.323   2.505
  143MYC    H9529360   5.525   1.243   2.437
  143MYC    H9629361   5.583   1.370   2.548
  143MYC    C4929362   5.428   1.431   2.417
  143MYC    H9329363   5.493   1.519   2.411
  143MYC    H9429364   5.336   1.456   2.470
  143MYC    C4829365   5.391   1.396   2.272
  143MYC    H9129366   5.323   1.309   2.272
  143MYC    H9229367   5.490   1.367   2.235
  143MYC    C4729368   5.354   1.519   2.188
  143MYC    H8929369   5.424   1.604   2.192
  143MYC    H9029370   5.259   1.560   2.224
  143MYC    C4629371   5.326   1.481   2.042
  143MYC    H8729372   5.232   1.426   2.031
  143MYC    H8829373   5.403   1.413   2.004
  143MYC    C4529374   5.310   1.608   1.956
  143MYC    H8529375   5.386   1.682   1.984
  143MYC    H8629376   5.214   1.649   1.989
  143MYC    C4429377   5.308   1.578   1.805
  143MYC    H8329378   5.255   1.661   1.756
  143MYC    H8429379   5.261   1.482   1.782
  143MYC    C1829380   5.446   1.569   1.744
  143MYC    H3129381   5.502   1.660   1.765
  143MYC    C1729382   5.522   1.439   1.728
  143MYC    H3029383   5.469   1.348   1.752
  143MYC    C1929384   5.473   1.513   1.606
  143MYC    H3229385   5.386   1.476   1.553
  143MYC    H3329386   5.546   1.564   1.544
  143MYC    C1629387   5.672   1.427   1.754
  143MYC    H2829388   5.709   1.469   1.848
  143MYC    H2929389   5.722   1.477   1.670
  143MYC    C1529390   5.717   1.281   1.764
  143MYC    H2629391   5.820   1.264   1.730
  143MYC    H2729392   5.653   1.228   1.693
  143MYC    C1429393   5.711   1.219   1.905
  143MYC    H2429394   5.606   1.218   1.938
  143MYC    H2529395   5.759   1.290   1.973
  143MYC    C1329396   5.772   1.078   1.910
  143MYC    H2229397   5.880   1.080   1.888
  143MYC    H2329398   5.727   1.009   1.837
  143MYC    C1229399   5.758   1.013   2.048
  143MYC    H2029400   5.655   0.976   2.044
  143MYC    H2129401   5.765   1.078   2.136
  143MYC    C1129402   5.856   0.895   2.060
  143MYC    H1829403   5.963   0.916   2.049
  143MYC    H1929404   5.829   0.831   1.975
  143MYC    C1029405   5.827   0.808   2.184
  143MYC    H1629406   5.881   0.714   2.170
  143MYC    H1729407   5.723   0.777   2.201
  143MYC     C929408   5.869   0.871   2.318
  143MYC    H1429409   5.826   0.972   2.325
  143MYC    H1529410   5.976   0.896   2.321
  143MYC     C829411   5.826   0.800   2.447
  143MYC    H1229412   5.871   0.701   2.463
  143MYC    H1329413   5.718   0.786   2.443
  143MYC     C729414   5.860   0.882   2.573
  143MYC    H1029415   5.821   0.984   2.570
  143MYC    H1129416   5.969   0.888   2.578
  143MYC     C629417   5.808   0.811   2.699
  143MYC     H829418   5.833   0.704   2.698
  143MYC     H929419   5.698   0.812   2.699
  143MYC     C529420   5.877   0.862   2.827
  143MYC     H629421   5.878   0.971   2.824
  143MYC     H729422   5.983   0.833   2.820
  143MYC     C429423   5.820   0.800   2.956
  143MYC     H429424   5.838   0.692   2.951
  143MYC     H529425   5.712   0.815   2.962
  143MYC     C229426   5.888   0.864   3.079
  143MYC     H229427   5.996   0.868   3.057
  143MYC     O329428   5.833   0.995   3.083
  143MYC     H329429   5.907   1.058   3.090
  143MYC     C129430   5.865   0.798   3.216
  143MYC     H129431   5.922   0.706   3.196
  143MYC    C8129432   5.720   0.763   3.243
  143MYC    O8229433   5.652   0.825   3.323
  143MYC    O8329434   5.681   0.638   3.206
  143MYC   6H1529435   5.596   0.629   3.253
  143MYC    C2029436   5.937   0.877   3.327
  143MYC    H3429437   6.039   0.891   3.288
  143MYC    H3529438   5.875   0.966   3.342
  143MYC    C2129439   5.941   0.796   3.458
  143MYC    H3629440   5.846   0.745   3.480
  143MYC    H3729441   6.002   0.707   3.440
  143MYC    C2229442   5.989   0.879   3.579
  143MYC    H3829443   6.097   0.893   3.574
  143MYC    H3929444   5.948   0.980   3.583
  143MYC    C2329445   5.943   0.810   3.708
  143MYC    H4029446   5.834   0.801   3.700
  143MYC    H4129447   6.000   0.716   3.710
  143MYC    C2429448   5.981   0.895   3.831
  143MYC    H4229449   6.081   0.935   3.808
  143MYC    H4329450   5.918   0.984   3.843
  143MYC    C2529451   5.984   0.806   3.956
  143MYC    H4429452   5.908   0.727   3.959
  143MYC    H4529453   6.084   0.766   3.974
  143MYC    C2629454   5.943   0.893   4.076
  143MYC    H4629455   6.017   0.974   4.082
  143MYC    H4729456   5.854   0.949   4.045
  143MYC    C2729457   5.916   0.822   4.210
  143MYC    H4829458   5.832   0.751   4.212
  143MYC    H4929459   6.008   0.768   4.237
  143MYC    C2829460   5.877   0.923   4.319
  143MYC    H5029461   5.957   0.997   4.310
  143MYC    H5129462   5.782   0.976   4.299
  143MYC    C2929463   5.882   0.859   4.458
  143MYC    H5229464   5.790   0.802   4.475
  143MYC    H5329465   5.960   0.781   4.456
  143MYC    C3029466   5.904   0.951   4.579
  143MYC    H5429467   6.002   1.000   4.568
  143MYC    H5529468   5.830   1.031   4.569
  143MYC    C3129469   5.895   0.876   4.712
  143MYC    H5629470   5.819   0.796   4.707
  143MYC    H5729471   5.990   0.823   4.729
  143MYC    C3229472   5.869   0.955   4.841
  143MYC    H5829473   5.952   1.027   4.850
  143MYC    H5929474   5.774   1.006   4.820
  143MYC    C3329475   5.868   0.869   4.969
  143MYC    H6029476   5.770   0.820   4.962
  143MYC    H6129477   5.942   0.788   4.968
  143MYC    C3429478   5.893   0.945   5.100
  143MYC    H6229479   5.995   0.983   5.090
  143MYC    H6329480   5.813   1.019   5.109
  143MYC    C3529481   5.894   0.854   5.224
  143MYC    H6429482   5.803   0.792   5.221
  143MYC    H6529483   5.985   0.792   5.223
  143MYC    C3629484   5.888   0.931   5.357
  143MYC    H6629485   5.965   1.009   5.357
  143MYC    H6729486   5.792   0.983   5.365
  143MYC    C3729487   5.910   0.829   5.471
  143MYC    H6829488   5.823   0.763   5.477
  143MYC    H6929489   5.994   0.766   5.439
  143MYC    C3829490   5.924   0.909   5.601
  143MYC    H7029491   6.009   0.978   5.594
  143MYC    H7129492   5.835   0.972   5.614
  143MYC    C3929493   5.948   0.821   5.725
  143MYC    H7229494   5.870   0.743   5.726
  143MYC    H7329495   6.036   0.757   5.718
  143MYC    C4029496   5.944   0.900   5.857
  143MYC    H7429497   6.032   0.966   5.862
  143MYC    H7529498   5.852   0.953   5.884
  143MYC    C4129499   5.964   0.795   5.968
  143MYC    H7629500   5.865   0.760   5.999
  143MYC    H7729501   6.020   0.709   5.931
  143MYC    C4229502   6.037   0.840   6.096
  143MYC    H7829503   6.129   0.891   6.066
  143MYC    H7929504   5.985   0.921   6.148
  143MYC    C4329505   6.055   0.727   6.199
  143MYC    H8029506   5.957   0.678   6.203
  143MYC    H8129507   6.092   0.772   6.292
  143MYC    H8229508   6.131   0.655   6.167
  144MYC   5H1529509   5.219   2.024   6.126
  144MYC    C8029510   5.284   1.999   6.041
  144MYC   3H1529511   5.384   2.006   6.086
  144MYC   4H1529512   5.256   1.899   6.007
  144MYC    C7929513   5.279   2.108   5.933
  144MYC   1H1529514   5.337   2.198   5.956
  144MYC   2H1529515   5.177   2.148   5.925
  144MYC    C7829516   5.310   2.048   5.795
  144MYC   9H1429517   5.235   1.971   5.774
  144MYC   0H1529518   5.404   1.992   5.807
  144MYC    C7729519   5.340   2.145   5.679
  144MYC   7H1429520   5.429   2.207   5.695
  144MYC   8H1429521   5.263   2.223   5.679
  144MYC    C7629522   5.359   2.077   5.542
  144MYC   5H1429523   5.280   2.001   5.535
  144MYC   6H1429524   5.459   2.033   5.548
  144MYC    C7529525   5.355   2.176   5.425
  144MYC   3H1429526   5.451   2.228   5.423
  144MYC   4H1429527   5.277   2.253   5.433
  144MYC    C7429528   5.334   2.110   5.288
  144MYC   1H1429529   5.227   2.085   5.289
  144MYC   2H1429530   5.388   2.014   5.295
  144MYC    C7329531   5.376   2.192   5.165
  144MYC   9H1329532   5.468   2.249   5.186
  144MYC   0H1429533   5.294   2.260   5.139
  144MYC    C7229534   5.396   2.108   5.038
  144MYC   7H1329535   5.301   2.060   5.011
  144MYC   8H1329536   5.466   2.030   5.069
  144MYC    C7129537   5.441   2.199   4.923
  144MYC   5H1329538   5.539   2.245   4.942
  144MYC   6H1329539   5.377   2.287   4.913
  144MYC    C7029540   5.446   2.119   4.791
  144MYC   3H1329541   5.366   2.044   4.791
  144MYC   4H1329542   5.527   2.046   4.784
  144MYC    C6929543   5.437   2.211   4.668
  144MYC   1H1329544   5.527   2.272   4.652
  144MYC   2H1329545   5.354   2.280   4.684
  144MYC    C6829546   5.410   2.127   4.542
  144MYC   9H1229547   5.314   2.074   4.540
  144MYC   0H1329548   5.481   2.044   4.531
  144MYC    C6729549   5.420   2.208   4.412
  144MYC   7H1229550   5.511   2.270   4.414
  144MYC   8H1229551   5.330   2.271   4.421
  144MYC    C6629552   5.419   2.124   4.284
  144MYC   5H1229553   5.328   2.062   4.284
  144MYC   6H1229554   5.506   2.057   4.276
  144MYC    C6529555   5.420   2.205   4.153
  144MYC   3H1229556   5.512   2.265   4.150
  144MYC   4H1229557   5.343   2.282   4.165
  144MYC    C6429558   5.408   2.126   4.022
  144MYC   1H1229559   5.330   2.051   4.043
  144MYC   2H1229560   5.500   2.072   3.996
  144MYC    C6329561   5.377   2.217   3.902
  144MYC   9H1129562   5.459   2.285   3.874
  144MYC   0H1229563   5.292   2.283   3.921
  144MYC    C6229564   5.343   2.137   3.775
  144MYC   7H1129565   5.277   2.059   3.814
  144MYC   8H1129566   5.430   2.085   3.733
  144MYC    C6129567   5.275   2.227   3.671
  144MYC   5H1129568   5.345   2.308   3.647
  144MYC   6H1129569   5.186   2.285   3.700
  144MYC    C6029570   5.243   2.153   3.541
  144MYC   4H1129571   5.148   2.100   3.544
  144MYC    C5829572   5.274   2.218   3.409
  144MYC   1H1129573   5.336   2.307   3.401
  144MYC    C5929574   5.344   2.090   3.449
  144MYC   2H1129575   5.315   1.998   3.401
  144MYC   3H1129576   5.451   2.103   3.461
  144MYC    C5729577   5.181   2.207   3.289
  144MYC   9H1029578   5.120   2.298   3.292
  144MYC   0H1129579   5.116   2.120   3.303
  144MYC    C5629580   5.258   2.186   3.157
  144MYC   7H1029581   5.303   2.087   3.146
  144MYC   8H1029582   5.346   2.250   3.148
  144MYC    C5529583   5.163   2.199   3.037
  144MYC   5H1029584   5.076   2.261   3.064
  144MYC   6H1029585   5.131   2.099   3.005
  144MYC    C5429586   5.249   2.239   2.916
  144MYC   3H1029587   5.344   2.184   2.915
  144MYC   4H1029588   5.288   2.341   2.920
  144MYC    C5329589   5.174   2.213   2.785
  144MYC   1H1029590   5.082   2.273   2.787
  144MYC   2H1029591   5.140   2.109   2.776
  144MYC    C5229592   5.268   2.244   2.667
  144MYC    H9929593   5.337   2.159   2.659
  144MYC   0H1029594   5.316   2.339   2.695
  144MYC    C5129595   5.206   2.260   2.527
  144MYC    H9729596   5.169   2.362   2.513
  144MYC    H9829597   5.117   2.196   2.519
  144MYC    C5029598   5.307   2.224   2.416
  144MYC    H9529599   5.361   2.133   2.446
  144MYC    H9629600   5.389   2.295   2.397
  144MYC    C4929601   5.236   2.188   2.285
  144MYC    H9329602   5.174   2.272   2.250
  144MYC    H9429603   5.167   2.104   2.301
  144MYC    C4829604   5.333   2.140   2.176
  144MYC    H9129605   5.383   2.047   2.206
  144MYC    H9229606   5.409   2.218   2.168
  144MYC    C4729607   5.266   2.129   2.038
  144MYC    H8929608   5.245   2.229   1.999
  144MYC    H9029609   5.166   2.084   2.050
  144MYC    C4629610   5.354   2.061   1.932
  144MYC    H8729611   5.369   1.954   1.951
  144MYC    H8829612   5.456   2.101   1.939
  144MYC    C4529613   5.310   2.091   1.788
  144MYC    H8529614   5.305   2.199   1.770
  144MYC    H8629615   5.209   2.049   1.783
  144MYC    C4429616   5.393   2.014   1.684
  144MYC    H8329617   5.334   1.989   1.594
  144MYC    H8429618   5.425   1.913   1.712
  144MYC    C1829619   5.519   2.086   1.640
  144MYC    H3129620   5.543   2.172   1.703
  144MYC    C1729621   5.639   2.006   1.594
  144MYC    H3029622   5.620   1.899   1.583
  144MYC    C1929623   5.567   2.096   1.497
  144MYC    H3229624   5.511   2.042   1.422
  144MYC    H3329625   5.605   2.193   1.465
  144MYC    C1629626   5.785   2.038   1.622
  144MYC    H2829627   5.796   2.146   1.639
  144MYC    H2929628   5.845   2.014   1.534
  144MYC    C1529629   5.841   1.961   1.743
  144MYC    H2629630   5.949   1.976   1.737
  144MYC    H2729631   5.819   1.854   1.735
  144MYC    C1429632   5.791   2.018   1.878
  144MYC    H2429633   5.682   2.032   1.880
  144MYC    H2529634   5.832   2.119   1.884
  144MYC    C1329635   5.838   1.936   1.999
  144MYC    H2229636   5.947   1.941   2.001
  144MYC    H2329637   5.814   1.829   1.989
  144MYC    C1229638   5.778   1.986   2.131
  144MYC    H2029639   5.671   1.964   2.122
  144MYC    H2129640   5.773   2.095   2.141
  144MYC    C1129641   5.848   1.923   2.253
  144MYC    H1829642   5.946   1.966   2.277
  144MYC    H1929643   5.865   1.817   2.232
  144MYC    C1029644   5.761   1.934   2.380
  144MYC    H1629645   5.821   1.891   2.461
  144MYC    H1729646   5.676   1.865   2.379
  144MYC     C929647   5.721   2.076   2.422
  144MYC    H1429648   5.653   2.119   2.347
  144MYC    H1529649   5.801   2.148   2.442
  144MYC     C829650   5.629   2.065   2.545
  144MYC    H1229651   5.551   1.992   2.523
  144MYC    H1329652   5.571   2.157   2.564
  144MYC     C729653   5.695   2.029   2.679
  144MYC    H1029654   5.747   2.117   2.718
  144MYC    H1129655   5.775   1.954   2.674
  144MYC     C629656   5.595   1.989   2.789
  144MYC     H829657   5.532   1.904   2.760
  144MYC     H929658   5.522   2.069   2.806
  144MYC     C529659   5.667   1.963   2.922
  144MYC     H629660   5.605   1.991   3.009
  144MYC     H729661   5.758   2.023   2.932
  144MYC     C429662   5.711   1.819   2.949
  144MYC     H429663   5.813   1.791   2.919
  144MYC     H529664   5.660   1.750   2.881
  144MYC     C229665   5.698   1.787   3.099
  144MYC     H229666   5.740   1.869   3.159
  144MYC     O329667   5.562   1.787   3.140
  144MYC     H329668   5.503   1.801   3.064
  144MYC     C129669   5.770   1.660   3.146
  144MYC     H129670   5.878   1.682   3.150
  144MYC    C8129671   5.745   1.540   3.056
  144MYC    O8229672   5.838   1.490   2.995
  144MYC    O8329673   5.617   1.509   3.025
  144MYC   6H1529674   5.615   1.441   2.955
  144MYC    C2029675   5.747   1.620   3.293
  144MYC    H3429676   5.644   1.584   3.302
  144MYC    H3529677   5.820   1.540   3.309
  144MYC    C2129678   5.781   1.716   3.409
  144MYC    H3629679   5.888   1.739   3.406
  144MYC    H3729680   5.725   1.809   3.392
  144MYC    C2229681   5.740   1.667   3.548
  144MYC    H3829682   5.632   1.649   3.539
  144MYC    H3929683   5.799   1.575   3.563
  144MYC    C2329684   5.768   1.758   3.669
  144MYC    H4029685   5.867   1.800   3.649
  144MYC    H4129686   5.693   1.838   3.661
  144MYC    C2429687   5.753   1.687   3.805
  144MYC    H4229688   5.651   1.648   3.811
  144MYC    H4329689   5.816   1.597   3.798
  144MYC    C2529690   5.785   1.781   3.922
  144MYC    H4429691   5.881   1.833   3.922
  144MYC    H4529692   5.714   1.864   3.908
  144MYC    C2629693   5.755   1.711   4.056
  144MYC    H4629694   5.651   1.675   4.057
  144MYC    H4729695   5.817   1.622   4.069
  144MYC    C2729696   5.778   1.798   4.181
  144MYC    H4829697   5.882   1.832   4.185
  144MYC    H4929698   5.716   1.888   4.178
  144MYC    C2829699   5.743   1.725   4.312
  144MYC    H5029700   5.642   1.684   4.310
  144MYC    H5129701   5.814   1.641   4.319
  144MYC    C2929702   5.763   1.817   4.433
  144MYC    H5229703   5.858   1.873   4.435
  144MYC    H5329704   5.696   1.903   4.422
  144MYC    C3029705   5.754   1.759   4.575
  144MYC    H5429706   5.664   1.701   4.600
  144MYC    H5529707   5.831   1.681   4.581
  144MYC    C3129708   5.789   1.861   4.685
  144MYC    H5629709   5.888   1.906   4.673
  144MYC    H5729710   5.725   1.950   4.684
  144MYC    C3229711   5.788   1.810   4.830
  144MYC    H5829712   5.698   1.748   4.829
  144MYC    H5929713   5.876   1.745   4.843
  144MYC    C3329714   5.790   1.906   4.950
  144MYC    H6029715   5.863   1.986   4.935
  144MYC    H6129716   5.690   1.950   4.958
  144MYC    C3429717   5.802   1.833   5.085
  144MYC    H6229718   5.716   1.766   5.086
  144MYC    H6329719   5.891   1.768   5.084
  144MYC    C3529720   5.795   1.920   5.212
  144MYC    H6429721   5.877   1.993   5.208
  144MYC    H6529722   5.702   1.976   5.223
  144MYC    C3629723   5.801   1.829   5.335
  144MYC    H6629724   5.722   1.753   5.331
  144MYC    H6729725   5.902   1.787   5.340
  144MYC    C3729726   5.785   1.906   5.467
  144MYC    H6829727   5.877   1.965   5.484
  144MYC    H6929728   5.700   1.976   5.465
  144MYC    C3829729   5.776   1.821   5.595
  144MYC    H7029730   5.686   1.759   5.586
  144MYC    H7129731   5.871   1.766   5.592
  144MYC    C3929732   5.761   1.910   5.719
  144MYC    H7229733   5.842   1.984   5.722
  144MYC    H7329734   5.668   1.966   5.703
  144MYC    C4029735   5.755   1.831   5.850
  144MYC    H7429736   5.670   1.761   5.855
  144MYC    H7529737   5.847   1.775   5.867
  144MYC    C4129738   5.742   1.928   5.969
  144MYC    H7629739   5.836   1.985   5.974
  144MYC    H7729740   5.660   2.001   5.963
  144MYC    C4229741   5.730   1.860   6.107
  144MYC    H7829742   5.640   1.799   6.122
  144MYC    H7929743   5.812   1.787   6.115
  144MYC    C4329744   5.737   1.960   6.223
  144MYC    H8029745   5.668   1.943   6.307
  144MYC    H8129746   5.707   2.060   6.191
  144MYC    H8229747   5.839   1.969   6.263
  145MYC   5H1529748   5.442   3.077   6.185
  145MYC    C8029749   5.494   3.050   6.092
  145MYC   3H1529750   5.602   3.057   6.114
  145MYC   4H1529751   5.475   2.943   6.078
  145MYC    C7929752   5.450   3.136   5.973
  145MYC   1H1529753   5.492   3.238   5.964
  145MYC   2H1529754   5.341   3.143   5.964
  145MYC    C7829755   5.502   3.071   5.843
  145MYC   9H1429756   5.467   2.967   5.842
  145MYC   0H1529757   5.611   3.062   5.853
  145MYC    C7729758   5.453   3.148   5.720
  145MYC   7H1429759   5.472   3.256   5.729
  145MYC   8H1429760   5.343   3.151   5.717
  145MYC    C7629761   5.498   3.095   5.583
  145MYC   5H1429762   5.489   2.985   5.577
  145MYC   6H1429763   5.605   3.119   5.576
  145MYC    C7529764   5.420   3.153   5.464
  145MYC   3H1429765   5.445   3.260   5.465
  145MYC   4H1429766   5.314   3.129   5.479
  145MYC    C7429767   5.460   3.092   5.328
  145MYC   1H1429768   5.463   2.983   5.339
  145MYC   2H1429769   5.563   3.122   5.306
  145MYC    C7329770   5.372   3.148   5.215
  145MYC   9H1329771   5.384   3.256   5.203
  145MYC   0H1429772   5.267   3.136   5.244
  145MYC    C7229773   5.399   3.074   5.083
  145MYC   7H1329774   5.376   2.967   5.097
  145MYC   8H1329775   5.505   3.078   5.057
  145MYC    C7129776   5.303   3.118   4.970
  145MYC   5H1329777   5.319   3.225   4.951
  145MYC   6H1329778   5.197   3.106   4.998
  145MYC    C7029779   5.331   3.031   4.846
  145MYC   3H1329780   5.272   2.939   4.854
  145MYC   4H1329781   5.435   2.996   4.838
  145MYC    C6929782   5.300   3.099   4.712
  145MYC   1H1329783   5.355   3.193   4.696
  145MYC   2H1329784   5.192   3.119   4.702
  145MYC    C6829785   5.327   3.008   4.591
  145MYC   9H1229786   5.241   2.941   4.585
  145MYC   0H1329787   5.417   2.948   4.612
  145MYC    C6729788   5.333   3.091   4.462
  145MYC   7H1229789   5.411   3.168   4.470
  145MYC   8H1229790   5.232   3.133   4.447
  145MYC    C6629791   5.372   3.011   4.336
  145MYC   5H1229792   5.317   2.917   4.334
  145MYC   6H1229793   5.480   2.996   4.345
  145MYC    C6529794   5.347   3.082   4.202
  145MYC   3H1229795   5.401   3.177   4.201
  145MYC   4H1229796   5.242   3.115   4.200
  145MYC    C6429797   5.389   3.009   4.074
  145MYC   1H1229798   5.320   2.925   4.061
  145MYC   2H1229799   5.492   2.973   4.083
  145MYC    C6329800   5.386   3.104   3.953
  145MYC   9H1129801   5.476   3.167   3.960
  145MYC   0H1229802   5.304   3.176   3.957
  145MYC    C6229803   5.391   3.023   3.822
  145MYC   7H1129804   5.290   2.980   3.812
  145MYC   8H1129805   5.456   2.935   3.826
  145MYC    C6129806   5.427   3.108   3.699
  145MYC   5H1129807   5.527   3.153   3.708
  145MYC   6H1129808   5.358   3.192   3.685
  145MYC    C6029809   5.416   3.017   3.577
  145MYC   4H1129810   5.328   2.954   3.584
  145MYC    C5829811   5.453   3.075   3.443
  145MYC   1H1129812   5.503   3.171   3.451
  145MYC    C5929813   5.537   2.965   3.504
  145MYC   2H1129814   5.534   2.865   3.461
  145MYC   3H1129815   5.637   2.985   3.542
  145MYC    C5729816   5.352   3.054   3.331
  145MYC   9H1029817   5.266   3.121   3.335
  145MYC   0H1129818   5.328   2.947   3.333
  145MYC    C5629819   5.433   3.063   3.200
  145MYC   7H1029820   5.529   3.011   3.199
  145MYC   8H1029821   5.474   3.165   3.198
  145MYC    C5529822   5.358   3.043   3.067
  145MYC   5H1029823   5.326   3.143   3.036
  145MYC   6H1029824   5.268   2.981   3.080
  145MYC    C5429825   5.438   2.978   2.953
  145MYC   3H1029826   5.466   2.873   2.968
  145MYC   4H1029827   5.530   3.039   2.952
  145MYC    C5329828   5.369   2.991   2.816
  145MYC   1H1029829   5.310   3.083   2.817
  145MYC   2H1029830   5.287   2.918   2.810
  145MYC    C5229831   5.464   3.005   2.696
  145MYC    H9929832   5.509   2.905   2.684
  145MYC   0H1029833   5.540   3.082   2.712
  145MYC    C5129834   5.388   3.041   2.567
  145MYC    H9729835   5.341   3.139   2.583
  145MYC    H9829836   5.299   2.977   2.560
  145MYC    C5029837   5.460   3.024   2.432
  145MYC    H9529838   5.512   2.929   2.418
  145MYC    H9629839   5.538   3.102   2.429
  145MYC    C4929840   5.376   3.047   2.306
  145MYC    H9329841   5.325   3.144   2.316
  145MYC    H9429842   5.301   2.969   2.287
  145MYC    C4829843   5.462   3.043   2.178
  145MYC    H9129844   5.508   2.945   2.161
  145MYC    H9229845   5.547   3.111   2.187
  145MYC    C4729846   5.376   3.082   2.057
  145MYC    H8929847   5.331   3.179   2.081
  145MYC    H9029848   5.297   3.006   2.046
  145MYC    C4629849   5.458   3.086   1.927
  145MYC    H8729850   5.491   2.983   1.909
  145MYC    H8829851   5.547   3.148   1.944
  145MYC    C4529852   5.378   3.139   1.806
  145MYC    H8529853   5.390   3.248   1.801
  145MYC    H8629854   5.272   3.113   1.817
  145MYC    C4429855   5.429   3.096   1.667
  145MYC    H8329856   5.395   3.174   1.598
  145MYC    H8429857   5.379   3.001   1.645
  145MYC    C1829858   5.581   3.098   1.652
  145MYC    H3129859   5.631   3.191   1.674
  145MYC    C1729860   5.656   2.970   1.682
  145MYC    H3029861   5.597   2.879   1.685
  145MYC    C1929862   5.655   3.026   1.542
  145MYC    H3229863   5.594   2.981   1.464
  145MYC    H3329864   5.742   3.076   1.498
  145MYC    C1629865   5.791   2.963   1.751
  145MYC    H2829866   5.792   3.029   1.839
  145MYC    H2929867   5.868   2.996   1.681
  145MYC    C1529868   5.835   2.824   1.800
  145MYC    H2629869   5.933   2.833   1.849
  145MYC    H2729870   5.853   2.747   1.724
  145MYC    C1429871   5.737   2.769   1.904
  145MYC    H2429872   5.650   2.737   1.847
  145MYC    H2529873   5.717   2.848   1.978
  145MYC    C1329874   5.775   2.644   1.986
  145MYC    H2229875   5.869   2.666   2.038
  145MYC    H2329876   5.803   2.560   1.922
  145MYC    C1229877   5.670   2.618   2.095
  145MYC    H2029878   5.568   2.616   2.053
  145MYC    H2129879   5.668   2.699   2.170
  145MYC    C1129880   5.703   2.487   2.168
  145MYC    H1829881   5.804   2.484   2.211
  145MYC    H1929882   5.686   2.413   2.088
  145MYC    C1029883   5.598   2.455   2.276
  145MYC    H1629884   5.619   2.351   2.305
  145MYC    H1729885   5.497   2.453   2.233
  145MYC     C929886   5.611   2.550   2.396
  145MYC    H1429887   5.523   2.616   2.403
  145MYC    H1529888   5.696   2.613   2.369
  145MYC     C829889   5.640   2.481   2.531
  145MYC    H1229890   5.733   2.423   2.526
  145MYC    H1329891   5.556   2.415   2.552
  145MYC     C729892   5.655   2.580   2.648
  145MYC    H1029893   5.566   2.643   2.637
  145MYC    H1129894   5.739   2.648   2.628
  145MYC     C629895   5.673   2.506   2.781
  145MYC     H829896   5.751   2.429   2.776
  145MYC     H929897   5.581   2.460   2.820
  145MYC     C529898   5.707   2.611   2.888
  145MYC     H629899   5.624   2.682   2.896
  145MYC     H729900   5.785   2.675   2.845
  145MYC     C429901   5.751   2.546   3.021
  145MYC     H429902   5.836   2.605   3.059
  145MYC     H529903   5.787   2.445   2.999
  145MYC     C229904   5.644   2.536   3.131
  145MYC     H229905   5.615   2.634   3.171
  145MYC     O329906   5.523   2.486   3.074
  145MYC     H329907   5.550   2.419   3.009
  145MYC     C129908   5.691   2.437   3.239
  145MYC     H129909   5.787   2.484   3.268
  145MYC    C8129910   5.715   2.291   3.203
  145MYC    O8229911   5.660   2.234   3.111
  145MYC    O8329912   5.804   2.226   3.282
  145MYC   6H1529913   5.801   2.132   3.255
  145MYC    C2029914   5.600   2.449   3.362
  145MYC    H3429915   5.494   2.458   3.338
  145MYC    H3529916   5.603   2.357   3.422
  145MYC    C2129917   5.647   2.553   3.466
  145MYC    H3629918   5.756   2.566   3.466
  145MYC    H3729919   5.592   2.646   3.447
  145MYC    C2229920   5.597   2.511   3.606
  145MYC    H3829921   5.487   2.500   3.608
  145MYC    H3929922   5.639   2.412   3.624
  145MYC    C2329923   5.640   2.612   3.714
  145MYC    H4029924   5.739   2.651   3.688
  145MYC    H4129925   5.570   2.697   3.713
  145MYC    C2429926   5.629   2.545   3.852
  145MYC    H4229927   5.537   2.486   3.846
  145MYC    H4329928   5.706   2.468   3.861
  145MYC    C2529929   5.632   2.649   3.965
  145MYC    H4429930   5.717   2.718   3.955
  145MYC    H4529931   5.543   2.712   3.957
  145MYC    C2629932   5.631   2.583   4.104
  145MYC    H4629933   5.559   2.499   4.103
  145MYC    H4729934   5.730   2.540   4.123
  145MYC    C2729935   5.602   2.675   4.224
  145MYC    H4829936   5.683   2.749   4.224
  145MYC    H4929937   5.505   2.726   4.221
  145MYC    C2829938   5.607   2.586   4.349
  145MYC    H5029939   5.520   2.519   4.356
  145MYC    H5129940   5.696   2.523   4.343
  145MYC    C2929941   5.605   2.666   4.481
  145MYC    H5229942   5.671   2.754   4.481
  145MYC    H5329943   5.502   2.706   4.479
  145MYC    C3029944   5.629   2.583   4.608
  145MYC    H5429945   5.561   2.497   4.603
  145MYC    H5529946   5.733   2.549   4.599
  145MYC    C3129947   5.621   2.659   4.741
  145MYC    H5629948   5.707   2.727   4.750
  145MYC    H5729949   5.528   2.717   4.733
  145MYC    C3229950   5.620   2.557   4.855
  145MYC    H5829951   5.520   2.511   4.860
  145MYC    H5929952   5.690   2.474   4.839
  145MYC    C3329953   5.639   2.637   4.985
  145MYC    H6029954   5.736   2.687   4.978
  145MYC    H6129955   5.557   2.709   5.001
  145MYC    C3429956   5.646   2.538   5.103
  145MYC    H6229957   5.552   2.482   5.095
  145MYC    H6329958   5.721   2.458   5.097
  145MYC    C3529959   5.651   2.607   5.241
  145MYC    H6429960   5.747   2.659   5.252
  145MYC    H6529961   5.571   2.681   5.249
  145MYC    C3629962   5.642   2.493   5.344
  145MYC    H6629963   5.554   2.431   5.325
  145MYC    H6729964   5.732   2.430   5.344
  145MYC    C3729965   5.624   2.569   5.477
  145MYC    H6829966   5.698   2.648   5.491
  145MYC    H6929967   5.525   2.616   5.483
  145MYC    C3829968   5.625   2.475   5.599
  145MYC    H7029969   5.556   2.392   5.583
  145MYC    H7129970   5.726   2.431   5.603
  145MYC    C3929971   5.582   2.545   5.729
  145MYC    H7229972   5.648   2.628   5.758
  145MYC    H7329973   5.476   2.573   5.721
  145MYC    C4029974   5.603   2.445   5.844
  145MYC    H7429975   5.547   2.354   5.821
  145MYC    H7529976   5.710   2.426   5.858
  145MYC    C4129977   5.560   2.491   5.985
  145MYC    H7629978   5.586   2.597   5.991
  145MYC    H7729979   5.450   2.484   5.988
  145MYC    C4229980   5.609   2.416   6.110
  145MYC    H7829981   5.591   2.309   6.098
  145MYC    H7929982   5.716   2.429   6.128
  145MYC    C4329983   5.539   2.464   6.239
  145MYC    H8029984   5.594   2.430   6.328
  145MYC    H8129985   5.434   2.433   6.250
  145MYC    H8229986   5.550   2.573   6.246
  146MYC   5H1529987   5.328   3.498   6.208
  146MYC    C8029988   5.396   3.500   6.122
  146MYC   3H1529989   5.460   3.589   6.131
  146MYC   4H1529990   5.451   3.405   6.124
  146MYC    C7929991   5.303   3.500   5.999
  146MYC   1H1529992   5.230   3.580   6.015
  146MYC   2H1529993   5.251   3.404   5.990
  146MYC    C7829994   5.383   3.536   5.873
  146MYC   9H1429995   5.482   3.488   5.875
  146MYC   0H1529996   5.401   3.645   5.876
  146MYC    C7729997   5.301   3.508   5.746
  146MYC   7H1429998   5.206   3.563   5.747
  146MYC   8H1429999   5.272   3.402   5.746
  146MYC    C7630000   5.372   3.550   5.616
  146MYC   5H1430001   5.463   3.492   5.596
  146MYC   6H1430002   5.398   3.656   5.617
  146MYC    C7530003   5.272   3.523   5.503
  146MYC   3H1430004   5.175   3.570   5.523
  146MYC   4H1430005   5.252   3.416   5.483
  146MYC    C7430006   5.326   3.577   5.369
  146MYC   1H1430007   5.407   3.517   5.327
  146MYC   2H1430008   5.371   3.676   5.385
  146MYC    C7330009   5.210   3.600   5.271
  146MYC   9H1330010   5.148   3.680   5.314
  146MYC   0H1430011   5.146   3.513   5.255
  146MYC    C7230012   5.266   3.634   5.132
  146MYC   7H1330013   5.352   3.569   5.114
  146MYC   8H1330014   5.300   3.738   5.118
  146MYC    C7130015   5.166   3.605   5.019
  146MYC   5H1330016   5.083   3.672   5.041
  146MYC   6H1330017   5.127   3.503   5.029
  146MYC    C7030018   5.228   3.622   4.879
  146MYC   3H1330019   5.309   3.548   4.882
  146MYC   4H1330020   5.259   3.727   4.869
  146MYC    C6930021   5.138   3.591   4.759
  146MYC   1H1330022   5.079   3.682   4.739
  146MYC   2H1330023   5.064   3.513   4.781
  146MYC    C6830024   5.223   3.539   4.642
  146MYC   9H1230025   5.268   3.443   4.670
  146MYC   0H1330026   5.303   3.614   4.638
  146MYC    C6730027   5.142   3.527   4.511
  146MYC   7H1230028   5.086   3.620   4.495
  146MYC   8H1230029   5.073   3.442   4.514
  146MYC    C6630030   5.232   3.503   4.389
  146MYC   5H1230031   5.262   3.398   4.389
  146MYC   6H1230032   5.318   3.571   4.394
  146MYC    C6530033   5.165   3.534   4.254
  146MYC   3H1230034   5.125   3.636   4.253
  146MYC   4H1230035   5.074   3.473   4.244
  146MYC    C6430036   5.249   3.510   4.127
  146MYC   1H1230037   5.295   3.411   4.116
  146MYC   2H1230038   5.340   3.572   4.123
  146MYC    C6330039   5.163   3.531   4.001
  146MYC   9H1130040   5.103   3.623   4.001
  146MYC   0H1230041   5.098   3.445   3.985
  146MYC    C6230042   5.253   3.534   3.876
  146MYC   7H1130043   5.324   3.452   3.867
  146MYC   8H1130044   5.314   3.625   3.881
  146MYC    C6130045   5.176   3.527   3.743
  146MYC   5H1130046   5.119   3.619   3.724
  146MYC   6H1130047   5.102   3.446   3.743
  146MYC    C6030048   5.276   3.495   3.633
  146MYC   4H1130049   5.331   3.401   3.640
  146MYC    C5830050   5.251   3.553   3.496
  146MYC   1H1130051   5.153   3.601   3.486
  146MYC    C5930052   5.359   3.611   3.584
  146MYC   2H1130053   5.464   3.585   3.570
  146MYC   3H1130054   5.347   3.714   3.615
  146MYC    C5730055   5.282   3.477   3.368
  146MYC   9H1030056   5.214   3.392   3.358
  146MYC   0H1130057   5.385   3.440   3.375
  146MYC    C5630058   5.262   3.559   3.239
  146MYC   7H1030059   5.334   3.641   3.255
  146MYC   8H1030060   5.160   3.596   3.225
  146MYC    C5530061   5.308   3.477   3.117
  146MYC   5H1030062   5.237   3.399   3.089
  146MYC   6H1030063   5.397   3.421   3.148
  146MYC    C5430064   5.335   3.571   2.998
  146MYC   3H1030065   5.425   3.627   3.026
  146MYC   4H1030066   5.253   3.641   2.978
  146MYC    C5330067   5.347   3.491   2.867
  146MYC   1H1030068   5.256   3.431   2.866
  146MYC   2H1030069   5.433   3.424   2.877
  146MYC    C5230070   5.349   3.581   2.742
  146MYC    H9930071   5.440   3.642   2.741
  146MYC   0H1030072   5.266   3.652   2.757
  146MYC    C5130073   5.339   3.499   2.613
  146MYC    H9730074   5.237   3.461   2.593
  146MYC    H9830075   5.395   3.406   2.627
  146MYC    C5030076   5.390   3.572   2.488
  146MYC    H9530077   5.475   3.519   2.443
  146MYC    H9630078   5.429   3.673   2.508
  146MYC    C4930079   5.288   3.580   2.373
  146MYC    H9330080   5.208   3.652   2.397
  146MYC    H9430081   5.241   3.482   2.365
  146MYC    C4830082   5.348   3.616   2.235
  146MYC    H9130083   5.410   3.527   2.217
  146MYC    H9230084   5.408   3.707   2.242
  146MYC    C4730085   5.243   3.630   2.123
  146MYC    H8930086   5.207   3.733   2.113
  146MYC    H9030087   5.150   3.580   2.152
  146MYC    C4630088   5.293   3.587   1.984
  146MYC    H8730089   5.327   3.483   1.979
  146MYC    H8830090   5.373   3.657   1.961
  146MYC    C4530091   5.187   3.595   1.873
  146MYC    H8530092   5.164   3.698   1.844
  146MYC    H8630093   5.099   3.538   1.906
  146MYC    C4430094   5.232   3.532   1.740
  146MYC    H8330095   5.158   3.554   1.662
  146MYC    H8430096   5.247   3.424   1.747
  146MYC    C1830097   5.359   3.590   1.681
  146MYC    H3130098   5.387   3.689   1.718
  146MYC    C1730099   5.474   3.503   1.636
  146MYC    H3030100   5.466   3.395   1.650
  146MYC    C1930101   5.388   3.574   1.534
  146MYC    H3230102   5.324   3.508   1.476
  146MYC    H3330103   5.430   3.662   1.487
  146MYC    C1630104   5.615   3.556   1.651
  146MYC    H2830105   5.615   3.664   1.671
  146MYC    H2930106   5.662   3.556   1.551
  146MYC    C1530107   5.705   3.485   1.753
  146MYC    H2630108   5.801   3.539   1.758
  146MYC    H2730109   5.732   3.385   1.717
  146MYC    C1430110   5.647   3.468   1.895
  146MYC    H2430111   5.570   3.391   1.903
  146MYC    H2530112   5.597   3.561   1.925
  146MYC    C1330113   5.757   3.448   2.001
  146MYC    H2230114   5.783   3.549   2.037
  146MYC    H2330115   5.845   3.397   1.961
  146MYC    C1230116   5.710   3.375   2.128
  146MYC    H2030117   5.695   3.271   2.099
  146MYC    H2130118   5.620   3.427   2.163
  146MYC    C1130119   5.826   3.390   2.229
  146MYC    H1830120   5.823   3.487   2.280
  146MYC    H1930121   5.922   3.381   2.178
  146MYC    C1030122   5.831   3.288   2.344
  146MYC    H1630123   5.931   3.303   2.386
  146MYC    H1730124   5.828   3.183   2.313
  146MYC     C930125   5.730   3.320   2.456
  146MYC    H1430126   5.725   3.231   2.521
  146MYC    H1530127   5.628   3.330   2.417
  146MYC     C830128   5.763   3.437   2.549
  146MYC    H1230129   5.744   3.536   2.506
  146MYC    H1330130   5.872   3.431   2.565
  146MYC     C730131   5.695   3.437   2.687
  146MYC    H1030132   5.622   3.356   2.691
  146MYC    H1130133   5.631   3.526   2.694
  146MYC     C630134   5.791   3.420   2.807
  146MYC     H830135   5.857   3.507   2.818
  146MYC     H930136   5.862   3.347   2.767
  146MYC     C530137   5.732   3.372   2.940
  146MYC     H630138   5.685   3.274   2.926
  146MYC     H730139   5.653   3.437   2.979
  146MYC     C430140   5.847   3.367   3.043
  146MYC     H430141   5.900   3.463   3.043
  146MYC     H530142   5.917   3.292   3.002
  146MYC     C230143   5.809   3.321   3.184
  146MYC     H230144   5.723   3.382   3.215
  146MYC     O330145   5.774   3.183   3.178
  146MYC     H330146   5.760   3.167   3.083
  146MYC     C130147   5.919   3.346   3.288
  146MYC     H130148   5.939   3.454   3.279
  146MYC    C8130149   6.051   3.274   3.264
  146MYC    O8230150   6.102   3.197   3.343
  146MYC    O8330151   6.121   3.314   3.155
  146MYC   6H1530152   6.211   3.279   3.163
  146MYC    C2030153   5.873   3.314   3.431
  146MYC    H3430154   5.766   3.335   3.443
  146MYC    H3530155   5.881   3.206   3.449
  146MYC    C2130156   5.958   3.389   3.535
  146MYC    H3630157   6.058   3.400   3.492
  146MYC    H3730158   5.910   3.487   3.549
  146MYC    C2230159   5.969   3.333   3.678
  146MYC    H3830160   5.958   3.224   3.667
  146MYC    H3930161   6.072   3.341   3.716
  146MYC    C2330162   5.872   3.391   3.782
  146MYC    H4030163   5.901   3.493   3.809
  146MYC    H4130164   5.770   3.393   3.742
  146MYC    C2430165   5.871   3.317   3.917
  146MYC    H4230166   5.851   3.210   3.902
  146MYC    H4330167   5.973   3.318   3.958
  146MYC    C2530168   5.773   3.379   4.018
  146MYC    H4430169   5.795   3.487   4.018
  146MYC    H4530170   5.670   3.367   3.983
  146MYC    C2630171   5.789   3.319   4.158
  146MYC    H4630172   5.772   3.212   4.143
  146MYC    H4730173   5.894   3.329   4.189
  146MYC    C2730174   5.709   3.393   4.266
  146MYC    H4830175   5.740   3.498   4.266
  146MYC    H4930176   5.602   3.388   4.243
  146MYC    C2830177   5.731   3.342   4.410
  146MYC    H5030178   5.698   3.238   4.421
  146MYC    H5130179   5.837   3.353   4.435
  146MYC    C2930180   5.644   3.428   4.504
  146MYC    H5230181   5.673   3.530   4.477
  146MYC    H5330182   5.536   3.417   4.488
  146MYC    C3030183   5.675   3.396   4.651
  146MYC    H5430184   5.640   3.294   4.672
  146MYC    H5530185   5.785   3.395   4.662
  146MYC    C3130186   5.628   3.491   4.762
  146MYC    H5630187   5.644   3.595   4.730
  146MYC    H5730188   5.520   3.485   4.778
  146MYC    C3230189   5.706   3.465   4.892
  146MYC    H5830190   5.712   3.358   4.916
  146MYC    H5930191   5.814   3.484   4.888
  146MYC    C3330192   5.653   3.537   5.018
  146MYC    H6030193   5.618   3.639   5.003
  146MYC    H6130194   5.559   3.487   5.042
  146MYC    C3430195   5.748   3.523   5.138
  146MYC    H6230196   5.796   3.425   5.125
  146MYC    H6330197   5.817   3.608   5.135
  146MYC    C3530198   5.675   3.517   5.273
  146MYC    H6430199   5.624   3.613   5.287
  146MYC    H6530200   5.606   3.432   5.284
  146MYC    C3630201   5.785   3.526   5.380
  146MYC    H6630202   5.866   3.456   5.359
  146MYC    H6730203   5.836   3.623   5.384
  146MYC    C3730204   5.727   3.500   5.520
  146MYC    H6830205   5.668   3.588   5.546
  146MYC    H6930206   5.656   3.416   5.525
  146MYC    C3830207   5.831   3.471   5.630
  146MYC    H7030208   5.885   3.382   5.594
  146MYC    H7130209   5.902   3.552   5.650
  146MYC    C3930210   5.759   3.426   5.758
  146MYC    H7230211   5.679   3.495   5.787
  146MYC    H7330212   5.707   3.331   5.739
  146MYC    C4030213   5.854   3.401   5.876
  146MYC    H7430214   5.943   3.349   5.840
  146MYC    H7530215   5.893   3.501   5.902
  146MYC    C4130216   5.784   3.330   5.992
  146MYC    H7630217   5.685   3.377   5.996
  146MYC    H7730218   5.762   3.225   5.969
  146MYC    C4230219   5.853   3.353   6.128
  146MYC    H7830220   5.953   3.307   6.122
  146MYC    H7930221   5.866   3.461   6.131
  146MYC    C4330222   5.776   3.314   6.255
  146MYC    H8030223   5.828   3.348   6.345
  146MYC    H8130224   5.768   3.205   6.256
  146MYC    H8230225   5.673   3.353   6.259
  147MYC   5H1530226   5.738   3.764   6.216
  147MYC    C8030227   5.777   3.840   6.147
  147MYC   3H1530228   5.735   3.939   6.168
  147MYC   4H1530229   5.886   3.835   6.161
  147MYC    C7930230   5.733   3.790   6.008
  147MYC   1H1530231   5.628   3.759   6.007
  147MYC   2H1530232   5.780   3.695   5.982
  147MYC    C7830233   5.762   3.896   5.900
  147MYC   9H1430234   5.868   3.913   5.877
  147MYC   0H1530235   5.736   4.000   5.926
  147MYC    C7730236   5.688   3.862   5.769
  147MYC   7H1430237   5.581   3.870   5.791
  147MYC   8H1430238   5.696   3.759   5.735
  147MYC    C7630239   5.724   3.954   5.651
  147MYC   5H1430240   5.834   3.956   5.647
  147MYC   6H1430241   5.685   4.054   5.669
  147MYC    C7530242   5.679   3.919   5.508
  147MYC   3H1430243   5.570   3.915   5.493
  147MYC   4H1430244   5.716   3.816   5.503
  147MYC    C7430245   5.754   4.008   5.407
  147MYC   1H1430246   5.860   4.017   5.431
  147MYC   2H1430247   5.724   4.113   5.413
  147MYC    C7330248   5.715   3.960   5.266
  147MYC   9H1330249   5.611   3.989   5.245
  147MYC   0H1430250   5.723   3.851   5.274
  147MYC    C7230251   5.800   4.012   5.149
  147MYC   7H1330252   5.901   3.971   5.161
  147MYC   8H1330253   5.790   4.121   5.148
  147MYC    C7130254   5.738   3.968   5.015
  147MYC   5H1330255   5.656   4.037   4.992
  147MYC   6H1330256   5.695   3.867   5.021
  147MYC    C7030257   5.837   3.958   4.898
  147MYC   3H1330258   5.927   3.896   4.909
  147MYC   4H1330259   5.883   4.055   4.877
  147MYC    C6930260   5.756   3.913   4.775
  147MYC   1H1330261   5.675   3.985   4.757
  147MYC   2H1330262   5.715   3.812   4.779
  147MYC    C6830263   5.838   3.929   4.645
  147MYC   9H1230264   5.918   3.854   4.638
  147MYC   0H1330265   5.888   4.026   4.656
  147MYC    C6730266   5.746   3.912   4.523
  147MYC   7H1230267   5.656   3.972   4.537
  147MYC   8H1230268   5.714   3.807   4.516
  147MYC    C6630269   5.822   3.940   4.392
  147MYC   5H1230270   5.901   3.866   4.379
  147MYC   6H1230271   5.866   4.040   4.386
  147MYC    C6530272   5.718   3.908   4.282
  147MYC   3H1230273   5.636   3.980   4.289
  147MYC   4H1230274   5.672   3.809   4.295
  147MYC    C6430275   5.787   3.916   4.145
  147MYC   1H1230276   5.892   3.885   4.148
  147MYC   2H1230277   5.795   4.021   4.116
  147MYC    C6330278   5.709   3.833   4.041
  147MYC   9H1130279   5.602   3.856   4.047
  147MYC   0H1230280   5.708   3.724   4.052
  147MYC    C6230281   5.751   3.861   3.896
  147MYC   7H1130282   5.855   3.828   3.893
  147MYC   8H1130283   5.754   3.970   3.882
  147MYC    C6130284   5.667   3.796   3.785
  147MYC   5H1130285   5.578   3.858   3.771
  147MYC   6H1130286   5.616   3.706   3.823
  147MYC    C6030287   5.739   3.772   3.653
  147MYC   4H1130288   5.775   3.670   3.648
  147MYC    C5830289   5.692   3.848   3.532
  147MYC   1H1130290   5.618   3.928   3.536
  147MYC    C5930291   5.826   3.880   3.594
  147MYC   2H1130292   5.913   3.839   3.544
  147MYC   3H1130293   5.834   3.975   3.646
  147MYC    C5730294   5.669   3.762   3.408
  147MYC   9H1030295   5.561   3.750   3.394
  147MYC   0H1130296   5.719   3.665   3.423
  147MYC    C5630297   5.734   3.832   3.288
  147MYC   7H1030298   5.837   3.865   3.304
  147MYC   8H1030299   5.674   3.924   3.278
  147MYC    C5530300   5.729   3.753   3.156
  147MYC   5H1030301   5.633   3.703   3.137
  147MYC   6H1030302   5.807   3.676   3.168
  147MYC    C5430303   5.771   3.852   3.046
  147MYC   3H1030304   5.879   3.870   3.040
  147MYC   4H1030305   5.727   3.950   3.069
  147MYC    C5330306   5.720   3.811   2.907
  147MYC   1H1030307   5.612   3.793   2.913
  147MYC   2H1030308   5.771   3.717   2.881
  147MYC    C5230309   5.744   3.926   2.807
  147MYC    H9930310   5.849   3.951   2.792
  147MYC   0H1030311   5.695   4.017   2.843
  147MYC    C5130312   5.699   3.890   2.664
  147MYC    H9730313   5.591   3.869   2.668
  147MYC    H9830314   5.741   3.795   2.631
  147MYC    C5030315   5.736   3.998   2.561
  147MYC    H9530316   5.845   4.015   2.567
  147MYC    H9630317   5.678   4.090   2.573
  147MYC    C4930318   5.712   3.934   2.423
  147MYC    H9330319   5.606   3.909   2.412
  147MYC    H9430320   5.768   3.840   2.418
  147MYC    C4830321   5.739   4.025   2.302
  147MYC    H9130322   5.845   4.053   2.298
  147MYC    H9230323   5.686   4.121   2.312
  147MYC    C4730324   5.697   3.957   2.172
  147MYC    H8930325   5.588   3.939   2.174
  147MYC    H9030326   5.746   3.859   2.169
  147MYC    C4630327   5.738   4.043   2.051
  147MYC    H8730328   5.843   4.073   2.063
  147MYC    H8830329   5.674   4.131   2.062
  147MYC    C4530330   5.703   3.981   1.915
  147MYC    H8530331   5.594   3.976   1.922
  147MYC    H8630332   5.734   3.876   1.906
  147MYC    C4430333   5.752   4.062   1.794
  147MYC    H8330334   5.743   3.987   1.714
  147MYC    H8430335   5.857   4.093   1.801
  147MYC    C1830336   5.670   4.184   1.754
  147MYC    H3130337   5.565   4.161   1.739
  147MYC    C1730338   5.707   4.320   1.809
  147MYC    H3030339   5.799   4.333   1.865
  147MYC    C1930340   5.735   4.287   1.665
  147MYC    H3230341   5.840   4.268   1.646
  147MYC    H3330342   5.673   4.318   1.580
  147MYC    C1630343   5.596   4.417   1.848
  147MYC    H2830344   5.524   4.356   1.904
  147MYC    H2930345   5.544   4.447   1.756
  147MYC    C1530346   5.644   4.540   1.926
  147MYC    H2630347   5.562   4.611   1.936
  147MYC    H2730348   5.726   4.586   1.869
  147MYC    C1430349   5.698   4.502   2.066
  147MYC    H2430350   5.804   4.473   2.062
  147MYC    H2530351   5.640   4.417   2.101
  147MYC    C1330352   5.671   4.614   2.168
  147MYC    H2230353   5.563   4.622   2.182
  147MYC    H2330354   5.692   4.714   2.127
  147MYC    C1230355   5.732   4.585   2.306
  147MYC    H2030356   5.841   4.572   2.308
  147MYC    H2130357   5.691   4.492   2.347
  147MYC    C1130358   5.705   4.707   2.396
  147MYC    H1830359   5.599   4.731   2.384
  147MYC    H1930360   5.761   4.797   2.368
  147MYC    C1030361   5.732   4.674   2.544
  147MYC    H1630362   5.739   4.772   2.591
  147MYC    H1730363   5.833   4.631   2.551
  147MYC     C930364   5.627   4.590   2.618
  147MYC    H1430365   5.645   4.486   2.588
  147MYC    H1530366   5.524   4.613   2.588
  147MYC     C830367   5.639   4.593   2.771
  147MYC    H1230368   5.609   4.691   2.811
  147MYC    H1330369   5.744   4.573   2.798
  147MYC     C730370   5.559   4.478   2.834
  147MYC    H1030371   5.594   4.380   2.800
  147MYC    H1130372   5.456   4.491   2.798
  147MYC     C630373   5.548   4.500   2.986
  147MYC     H830374   5.533   4.604   3.018
  147MYC     H930375   5.647   4.474   3.026
  147MYC     C530376   5.448   4.403   3.052
  147MYC     H630377   5.464   4.305   3.006
  147MYC     H730378   5.347   4.437   3.026
  147MYC     C430379   5.453   4.407   3.205
  147MYC     H430380   5.359   4.361   3.239
  147MYC     H530381   5.449   4.514   3.233
  147MYC     C230382   5.554   4.316   3.277
  147MYC     H230383   5.500   4.252   3.347
  147MYC     O330384   5.618   4.227   3.187
  147MYC     H330385   5.656   4.289   3.122
  147MYC     C130386   5.651   4.396   3.365
  147MYC     H130387   5.595   4.458   3.436
  147MYC    C8130388   5.742   4.491   3.287
  147MYC    O8230389   5.841   4.450   3.228
  147MYC    O8330390   5.714   4.622   3.304
  147MYC   6H1530391   5.790   4.667   3.264
  147MYC    C2030392   5.744   4.308   3.450
  147MYC    H3430393   5.737   4.202   3.423
  147MYC    H3530394   5.852   4.327   3.450
  147MYC    C2130395   5.693   4.313   3.595
  147MYC    H3630396   5.584   4.301   3.598
  147MYC    H3730397   5.733   4.224   3.645
  147MYC    C2230398   5.738   4.434   3.679
  147MYC    H3830399   5.840   4.474   3.683
  147MYC    H3930400   5.682   4.519   3.639
  147MYC    C2330401   5.698   4.423   3.828
  147MYC    H4030402   5.589   4.414   3.832
  147MYC    H4130403   5.747   4.335   3.871
  147MYC    C2430404   5.766   4.535   3.909
  147MYC    H4230405   5.874   4.521   3.900
  147MYC    H4330406   5.735   4.631   3.868
  147MYC    C2530407   5.723   4.516   4.056
  147MYC    H4430408   5.615   4.527   4.068
  147MYC    H4530409   5.755   4.419   4.098
  147MYC    C2630410   5.789   4.624   4.143
  147MYC    H4630411   5.894   4.598   4.158
  147MYC    H4730412   5.793   4.724   4.097
  147MYC    C2730413   5.705   4.647   4.269
  147MYC    H4830414   5.602   4.677   4.246
  147MYC    H4930415   5.701   4.550   4.321
  147MYC    C2830416   5.771   4.744   4.370
  147MYC    H5030417   5.876   4.713   4.379
  147MYC    H5130418   5.770   4.847   4.334
  147MYC    C2930419   5.699   4.722   4.504
  147MYC    H5230420   5.591   4.733   4.486
  147MYC    H5330421   5.716   4.622   4.545
  147MYC    C3030422   5.733   4.817   4.621
  147MYC    H5430423   5.840   4.833   4.637
  147MYC    H5530424   5.701   4.917   4.592
  147MYC    C3130425   5.662   4.786   4.753
  147MYC    H5630426   5.556   4.815   4.757
  147MYC    H5730427   5.667   4.677   4.766
  147MYC    C3230428   5.737   4.845   4.873
  147MYC    H5830429   5.841   4.811   4.875
  147MYC    H5930430   5.741   4.954   4.860
  147MYC    C3330431   5.668   4.823   5.009
  147MYC    H6030432   5.566   4.864   5.014
  147MYC    H6130433   5.660   4.714   5.022
  147MYC    C3430434   5.739   4.880   5.133
  147MYC    H6230435   5.848   4.875   5.125
  147MYC    H6330436   5.703   4.984   5.138
  147MYC    C3530437   5.690   4.826   5.268
  147MYC    H6430438   5.580   4.832   5.266
  147MYC    H6530439   5.724   4.722   5.272
  147MYC    C3630440   5.732   4.906   5.392
  147MYC    H6630441   5.839   4.887   5.408
  147MYC    H6730442   5.715   5.014   5.379
  147MYC    C3730443   5.663   4.855   5.520
  147MYC    H6830444   5.557   4.884   5.514
  147MYC    H6930445   5.666   4.746   5.524
  147MYC    C3830446   5.727   4.916   5.645
  147MYC    H7030447   5.823   4.868   5.666
  147MYC    H7130448   5.745   5.024   5.635
  147MYC    C3930449   5.627   4.894   5.760
  147MYC    H7230450   5.538   4.959   5.758
  147MYC    H7330451   5.597   4.788   5.756
  147MYC    C4030452   5.687   4.914   5.900
  147MYC    H7430453   5.778   4.854   5.907
  147MYC    H7530454   5.705   5.022   5.907
  147MYC    C4130455   5.587   4.875   6.011
  147MYC    H7630456   5.504   4.947   6.013
  147MYC    H7730457   5.538   4.778   6.002
  147MYC    C4230458   5.665   4.890   6.143
  147MYC    H7830459   5.772   4.867   6.129
  147MYC    H7930460   5.672   4.996   6.170
  147MYC    C4330461   5.613   4.810   6.264
  147MYC    H8030462   5.678   4.817   6.352
  147MYC    H8130463   5.607   4.702   6.242
  147MYC    H8230464   5.512   4.841   6.291
  148MYC   5H1530465   5.336   5.276   6.274
  148MYC    C8030466   5.396   5.272   6.183
  148MYC   3H1530467   5.434   5.373   6.162
  148MYC   4H1530468   5.471   5.193   6.198
  148MYC    C7930469   5.317   5.230   6.058
  148MYC   1H1530470   5.235   5.302   6.050
  148MYC   2H1530471   5.266   5.135   6.079
  148MYC    C7830472   5.409   5.229   5.934
  148MYC   9H1430473   5.483   5.149   5.942
  148MYC   0H1530474   5.462   5.324   5.940
  148MYC    C7730475   5.326   5.228   5.805
  148MYC   7H1430476   5.264   5.319   5.799
  148MYC   8H1430477   5.257   5.143   5.803
  148MYC    C7630478   5.414   5.215   5.679
  148MYC   5H1430479   5.478   5.126   5.680
  148MYC   6H1430480   5.478   5.304   5.682
  148MYC    C7530481   5.330   5.214   5.550
  148MYC   3H1430482   5.304   5.317   5.526
  148MYC   4H1430483   5.233   5.167   5.572
  148MYC    C7430484   5.405   5.160   5.427
  148MYC   1H1430485   5.450   5.062   5.449
  148MYC   2H1430486   5.488   5.229   5.408
  148MYC    C7330487   5.316   5.148   5.303
  148MYC   9H1330488   5.295   5.253   5.277
  148MYC   0H1430489   5.215   5.114   5.328
  148MYC    C7230490   5.388   5.077   5.187
  148MYC   7H1330491   5.394   4.969   5.200
  148MYC   8H1330492   5.491   5.113   5.174
  148MYC    C7130493   5.314   5.108   5.056
  148MYC   5H1330494   5.296   5.215   5.040
  148MYC   6H1330495   5.212   5.067   5.065
  148MYC    C7030496   5.372   5.051   4.925
  148MYC   3H1330497   5.360   4.943   4.938
  148MYC   4H1330498   5.480   5.071   4.922
  148MYC    C6930499   5.301   5.100   4.797
  148MYC   1H1330500   5.288   5.208   4.810
  148MYC   2H1330501   5.199   5.060   4.793
  148MYC    C6830502   5.383   5.073   4.669
  148MYC   9H1230503   5.405   4.966   4.676
  148MYC   0H1330504   5.477   5.129   4.679
  148MYC    C6730505   5.314   5.108   4.537
  148MYC   7H1230506   5.313   5.217   4.523
  148MYC   8H1230507   5.212   5.068   4.547
  148MYC    C6630508   5.372   5.053   4.405
  148MYC   5H1230509   5.323   4.957   4.385
  148MYC   6H1230510   5.481   5.048   4.418
  148MYC    C6530511   5.359   5.142   4.281
  148MYC   3H1230512   5.401   5.244   4.290
  148MYC   4H1230513   5.254   5.158   4.254
  148MYC    C6430514   5.421   5.073   4.158
  148MYC   1H1230515   5.394   4.967   4.148
  148MYC   2H1230516   5.529   5.083   4.171
  148MYC    C6330517   5.376   5.144   4.029
  148MYC   9H1130518   5.404   5.249   4.022
  148MYC   0H1230519   5.267   5.135   4.034
  148MYC    C6230520   5.436   5.074   3.906
  148MYC   7H1130521   5.437   4.965   3.922
  148MYC   8H1130522   5.542   5.100   3.903
  148MYC    C6130523   5.364   5.095   3.772
  148MYC   5H1130524   5.344   5.199   3.745
  148MYC   6H1130525   5.264   5.059   3.798
  148MYC    C6030526   5.416   5.016   3.652
  148MYC   4H1130527   5.438   4.914   3.682
  148MYC    C5830528   5.384   5.043   3.507
  148MYC   1H1130529   5.317   5.126   3.483
  148MYC    C5930530   5.516   5.087   3.564
  148MYC   2H1130531   5.598   5.034   3.517
  148MYC   3H1130532   5.530   5.194   3.576
  148MYC    C5730533   5.376   4.925   3.412
  148MYC   9H1030534   5.277   4.879   3.399
  148MYC   0H1130535   5.437   4.841   3.449
  148MYC    C5630536   5.430   4.969   3.275
  148MYC   7H1030537   5.539   4.976   3.277
  148MYC   8H1030538   5.404   5.073   3.252
  148MYC    C5530539   5.398   4.876   3.157
  148MYC   5H1030540   5.292   4.891   3.131
  148MYC   6H1030541   5.426   4.771   3.175
  148MYC    C5430542   5.468   4.921   3.028
  148MYC   3H1030543   5.564   4.869   3.014
  148MYC   4H1030544   5.504   5.024   3.039
  148MYC    C5330545   5.383   4.909   2.901
  148MYC   1H1030546   5.288   4.960   2.917
  148MYC   2H1030547   5.346   4.806   2.896
  148MYC    C5230548   5.448   4.975   2.778
  148MYC    H9930549   5.556   4.954   2.780
  148MYC   0H1030550   5.436   5.084   2.783
  148MYC    C5130551   5.381   4.931   2.646
  148MYC    H9730552   5.282   4.976   2.649
  148MYC    H9830553   5.371   4.822   2.636
  148MYC    C5030554   5.461   4.979   2.524
  148MYC    H9530555   5.562   4.935   2.521
  148MYC    H9630556   5.488   5.085   2.530
  148MYC    C4930557   5.384   4.954   2.394
  148MYC    H9330558   5.281   4.993   2.390
  148MYC    H9430559   5.369   4.846   2.383
  148MYC    C4830560   5.467   4.996   2.272
  148MYC    H9130561   5.566   4.950   2.276
  148MYC    H9230562   5.481   5.105   2.262
  148MYC    C4730563   5.399   4.940   2.146
  148MYC    H8930564   5.293   4.966   2.133
  148MYC    H9030565   5.397   4.830   2.151
  148MYC    C4630566   5.482   4.984   2.024
  148MYC    H8730567   5.582   4.945   2.046
  148MYC    H8830568   5.481   5.094   2.019
  148MYC    C4530569   5.442   4.921   1.890
  148MYC    H8530570   5.348   4.956   1.846
  148MYC    H8630571   5.437   4.812   1.906
  148MYC    C4430572   5.556   4.940   1.788
  148MYC    H8330573   5.528   4.889   1.695
  148MYC    H8430574   5.643   4.887   1.827
  148MYC    C1830575   5.583   5.089   1.765
  148MYC    H3130576   5.506   5.136   1.705
  148MYC    C1730577   5.654   5.182   1.860
  148MYC    H3030578   5.700   5.145   1.951
  148MYC    C1930579   5.722   5.136   1.733
  148MYC    H3230580   5.792   5.054   1.745
  148MYC    H3330581   5.753   5.215   1.665
  148MYC    C1630582   5.615   5.329   1.870
  148MYC    H2830583   5.537   5.326   1.947
  148MYC    H2930584   5.565   5.370   1.782
  148MYC    C1530585   5.733   5.423   1.901
  148MYC    H2630586   5.696   5.526   1.907
  148MYC    H2730587   5.797   5.413   1.812
  148MYC    C1430588   5.815   5.383   2.024
  148MYC    H2430589   5.870   5.474   2.051
  148MYC    H2530590   5.881   5.298   2.003
  148MYC    C1330591   5.734   5.340   2.148
  148MYC    H2230592   5.728   5.230   2.151
  148MYC    H2330593   5.635   5.385   2.142
  148MYC    C1230594   5.790   5.386   2.284
  148MYC    H2030595   5.776   5.492   2.307
  148MYC    H2130596   5.898   5.368   2.288
  148MYC    C1130597   5.719   5.316   2.401
  148MYC    H1830598   5.707   5.207   2.388
  148MYC    H1930599   5.615   5.348   2.404
  148MYC    C1030600   5.790   5.348   2.534
  148MYC    H1630601   5.808   5.455   2.545
  148MYC    H1730602   5.892   5.307   2.530
  148MYC     C930603   5.729   5.302   2.667
  148MYC    H1430604   5.697   5.198   2.658
  148MYC    H1530605   5.642   5.365   2.691
  148MYC     C830606   5.828   5.320   2.784
  148MYC    H1230607   5.850   5.427   2.787
  148MYC    H1330608   5.926   5.278   2.758
  148MYC     C730609   5.782   5.264   2.920
  148MYC    H1030610   5.870   5.282   2.984
  148MYC    H1130611   5.757   5.157   2.915
  148MYC     C630612   5.661   5.334   2.985
  148MYC     H830613   5.570   5.312   2.928
  148MYC     H930614   5.675   5.443   2.980
  148MYC     C530615   5.647   5.291   3.132
  148MYC     H630616   5.729   5.220   3.150
  148MYC     H730617   5.556   5.231   3.143
  148MYC     C430618   5.639   5.408   3.232
  148MYC     H430619   5.537   5.388   3.270
  148MYC     H530620   5.632   5.511   3.195
  148MYC     C230621   5.736   5.406   3.351
  148MYC     H230622   5.674   5.455   3.427
  148MYC     O330623   5.766   5.275   3.396
  148MYC     H330624   5.704   5.218   3.348
  148MYC     C130625   5.859   5.493   3.315
  148MYC     H130626   5.811   5.591   3.306
  148MYC    C8130627   5.933   5.456   3.187
  148MYC    O8230628   6.032   5.385   3.193
  148MYC    O8330629   5.897   5.528   3.079
  148MYC   6H1530630   5.963   5.504   3.012
  148MYC    C2030631   5.956   5.512   3.432
  148MYC    H3430632   6.011   5.419   3.454
  148MYC    H3530633   6.021   5.591   3.393
  148MYC    C2130634   5.897   5.562   3.565
  148MYC    H3630635   5.965   5.641   3.600
  148MYC    H3730636   5.798   5.607   3.551
  148MYC    C2230637   5.896   5.452   3.672
  148MYC    H3830638   5.865   5.357   3.627
  148MYC    H3930639   6.002   5.434   3.696
  148MYC    C2330640   5.816   5.490   3.798
  148MYC    H4030641   5.836   5.592   3.832
  148MYC    H4130642   5.712   5.498   3.763
  148MYC    C2430643   5.818   5.389   3.914
  148MYC    H4230644   5.747   5.307   3.899
  148MYC    H4330645   5.914   5.339   3.898
  148MYC    C2530646   5.811   5.455   4.053
  148MYC    H4430647   5.867   5.549   4.061
  148MYC    H4530648   5.709   5.476   4.087
  148MYC    C2630649   5.872   5.358   4.155
  148MYC    H4630650   5.849   5.255   4.124
  148MYC    H4730651   5.982   5.356   4.149
  148MYC    C2730652   5.827   5.387   4.299
  148MYC    H4830653   5.843   5.494   4.316
  148MYC    H4930654   5.719   5.369   4.309
  148MYC    C2830655   5.899   5.303   4.406
  148MYC    H5030656   5.866   5.199   4.390
  148MYC    H5130657   6.007   5.311   4.392
  148MYC    C2930658   5.863   5.334   4.552
  148MYC    H5230659   5.896   5.437   4.575
  148MYC    H5330660   5.756   5.323   4.571
  148MYC    C3030661   5.937   5.235   4.644
  148MYC    H5430662   5.939   5.135   4.598
  148MYC    H5530663   6.034   5.279   4.667
  148MYC    C3130664   5.873   5.205   4.781
  148MYC    H5630665   5.769   5.176   4.761
  148MYC    H5730666   5.927   5.116   4.813
  148MYC    C3230667   5.892   5.316   4.885
  148MYC    H5830668   6.000   5.326   4.902
  148MYC    H5930669   5.849   5.405   4.837
  148MYC    C3330670   5.830   5.274   5.019
  148MYC    H6030671   5.721   5.286   5.021
  148MYC    H6130672   5.846   5.168   5.041
  148MYC    C3430673   5.888   5.367   5.127
  148MYC    H6230674   5.997   5.373   5.117
  148MYC    H6330675   5.845   5.468   5.125
  148MYC    C3530676   5.858   5.309   5.267
  148MYC    H6430677   5.750   5.295   5.282
  148MYC    H6530678   5.898   5.207   5.277
  148MYC    C3630679   5.903   5.387   5.392
  148MYC    H6630680   6.010   5.411   5.380
  148MYC    H6730681   5.845   5.479   5.388
  148MYC    C3730682   5.874   5.309   5.521
  148MYC    H6830683   5.776   5.262   5.511
  148MYC    H6930684   5.945   5.226   5.525
  148MYC    C3830685   5.881   5.393   5.650
  148MYC    H7030686   5.970   5.456   5.661
  148MYC    H7130687   5.800   5.466   5.638
  148MYC    C3930688   5.869   5.302   5.773
  148MYC    H7230689   5.772   5.254   5.763
  148MYC    H7330690   5.943   5.221   5.764
  148MYC    C4030691   5.881   5.379   5.906
  148MYC    H7430692   5.983   5.411   5.930
  148MYC    H7530693   5.816   5.468   5.907
  148MYC    C4130694   5.837   5.294   6.027
  148MYC    H7630695   5.756   5.224   6.001
  148MYC    H7730696   5.923   5.229   6.051
  148MYC    C4230697   5.794   5.374   6.151
  148MYC    H7830698   5.866   5.453   6.173
  148MYC    H7930699   5.694   5.417   6.144
  148MYC    C4330700   5.801   5.277   6.271
  148MYC    H8030701   5.783   5.335   6.362
  148MYC    H8130702   5.900   5.232   6.276
  148MYC    H8230703   5.724   5.200   6.256
  149MYC   5H1530704   5.434   5.609   6.256
  149MYC    C8030705   5.476   5.665   6.172
  149MYC   3H1530706   5.517   5.762   6.202
  149MYC   4H1530707   5.557   5.608   6.124
  149MYC    C7930708   5.363   5.672   6.068
  149MYC   1H1530709   5.298   5.759   6.082
  149MYC   2H1530710   5.308   5.577   6.062
  149MYC    C7830711   5.424   5.697   5.929
  149MYC   9H1430712   5.488   5.609   5.912
  149MYC   0H1530713   5.482   5.789   5.924
  149MYC    C7730714   5.324   5.694   5.813
  149MYC   7H1430715   5.245   5.770   5.825
  149MYC   8H1430716   5.274   5.596   5.814
  149MYC    C7630717   5.390   5.708   5.674
  149MYC   5H1430718   5.482   5.648   5.677
  149MYC   6H1430719   5.424   5.810   5.652
  149MYC    C7530720   5.291   5.663   5.566
  149MYC   3H1430721   5.195   5.714   5.580
  149MYC   4H1430722   5.273   5.557   5.584
  149MYC    C7430723   5.351   5.688   5.426
  149MYC   1H1430724   5.445   5.632   5.428
  149MYC   2H1430725   5.371   5.796   5.414
  149MYC    C7330726   5.250   5.643   5.319
  149MYC   9H1330727   5.153   5.689   5.344
  149MYC   0H1430728   5.222   5.537   5.322
  149MYC    C7230729   5.302   5.687   5.181
  149MYC   7H1330730   5.408   5.659   5.176
  149MYC   8H1330731   5.307   5.796   5.170
  149MYC    C7130732   5.215   5.641   5.063
  149MYC   5H1330733   5.125   5.699   5.039
  149MYC   6H1330734   5.179   5.542   5.094
  149MYC    C7030735   5.289   5.622   4.930
  149MYC   3H1330736   5.349   5.530   4.936
  149MYC   4H1330737   5.362   5.703   4.927
  149MYC    C6930738   5.202   5.638   4.804
  149MYC   1H1330739   5.176   5.744   4.802
  149MYC   2H1330740   5.113   5.574   4.803
  149MYC    C6830741   5.280   5.602   4.677
  149MYC   9H1230742   5.329   5.506   4.697
  149MYC   0H1330743   5.359   5.677   4.666
  149MYC    C6730744   5.193   5.598   4.550
  149MYC   7H1230745   5.150   5.699   4.538
  149MYC   8H1230746   5.112   5.525   4.559
  149MYC    C6630747   5.265   5.562   4.419
  149MYC   5H1230748   5.311   5.463   4.430
  149MYC   6H1230749   5.351   5.628   4.404
  149MYC    C6530750   5.178   5.571   4.292
  149MYC   3H1230751   5.158   5.677   4.274
  149MYC   4H1230752   5.082   5.517   4.289
  149MYC    C6430753   5.257   5.512   4.174
  149MYC   1H1230754   5.247   5.403   4.171
  149MYC   2H1230755   5.360   5.549   4.189
  149MYC    C6330756   5.206   5.562   4.038
  149MYC   9H1130757   5.221   5.671   4.038
  149MYC   0H1230758   5.099   5.542   4.030
  149MYC    C6230759   5.276   5.500   3.915
  149MYC   7H1130760   5.252   5.393   3.914
  149MYC   8H1130761   5.385   5.510   3.918
  149MYC    C6130762   5.219   5.575   3.793
  149MYC   5H1130763   5.255   5.679   3.795
  149MYC   6H1130764   5.110   5.576   3.787
  149MYC    C6030765   5.278   5.521   3.664
  149MYC   4H1130766   5.246   5.420   3.640
  149MYC    C5830767   5.293   5.619   3.550
  149MYC   1H1130768   5.269   5.723   3.569
  149MYC    C5930769   5.415   5.570   3.623
  149MYC   2H1130770   5.480   5.503   3.567
  149MYC   3H1130771   5.473   5.631   3.691
  149MYC    C5730772   5.258   5.574   3.409
  149MYC   9H1030773   5.150   5.589   3.397
  149MYC   0H1130774   5.280   5.469   3.387
  149MYC    C5630775   5.326   5.655   3.296
  149MYC   7H1030776   5.434   5.662   3.312
  149MYC   8H1030777   5.293   5.759   3.307
  149MYC    C5530778   5.282   5.606   3.157
  149MYC   5H1030779   5.175   5.632   3.155
  149MYC   6H1030780   5.280   5.497   3.153
  149MYC    C5430781   5.348   5.681   3.040
  149MYC   3H1030782   5.456   5.675   3.054
  149MYC   4H1030783   5.315   5.785   3.030
  149MYC    C5330784   5.320   5.598   2.913
  149MYC   1H1030785   5.215   5.567   2.920
  149MYC   2H1030786   5.373   5.503   2.915
  149MYC    C5230787   5.362   5.664   2.780
  149MYC    H9930788   5.471   5.677   2.780
  149MYC   0H1030789   5.319   5.765   2.787
  149MYC    C5130790   5.329   5.592   2.648
  149MYC    H9730791   5.221   5.577   2.638
  149MYC    H9830792   5.363   5.488   2.648
  149MYC    C5030793   5.374   5.679   2.530
  149MYC    H9530794   5.475   5.717   2.548
  149MYC    H9630795   5.302   5.761   2.521
  149MYC    C4930796   5.372   5.616   2.389
  149MYC    H9330797   5.275   5.565   2.375
  149MYC    H9430798   5.439   5.530   2.401
  149MYC    C4830799   5.414   5.714   2.279
  149MYC    H9130800   5.520   5.741   2.283
  149MYC    H9230801   5.356   5.807   2.285
  149MYC    C4730802   5.379   5.661   2.138
  149MYC    H8930803   5.270   5.648   2.136
  149MYC    H9030804   5.414   5.559   2.118
  149MYC    C4630805   5.425   5.756   2.026
  149MYC    H8730806   5.535   5.762   2.024
  149MYC    H8830807   5.394   5.860   2.043
  149MYC    C4530808   5.375   5.706   1.889
  149MYC    H8530809   5.283   5.751   1.852
  149MYC    H8630810   5.335   5.604   1.899
  149MYC    C4430811   5.475   5.716   1.772
  149MYC    H8330812   5.428   5.674   1.683
  149MYC    H8430813   5.568   5.663   1.795
  149MYC    C1830814   5.518   5.860   1.749
  149MYC    H3130815   5.499   5.928   1.832
  149MYC    C1730816   5.633   5.903   1.661
  149MYC    H3030817   5.700   5.828   1.618
  149MYC    C1930818   5.492   5.909   1.609
  149MYC    H3230819   5.448   5.838   1.540
  149MYC    H3330820   5.454   6.010   1.599
  149MYC    C1630821   5.704   6.034   1.691
  149MYC    H2830822   5.632   6.105   1.734
  149MYC    H2930823   5.752   6.073   1.601
  149MYC    C1530824   5.808   6.006   1.801
  149MYC    H2630825   5.875   6.091   1.821
  149MYC    H2730826   5.885   5.942   1.754
  149MYC    C1430827   5.767   5.937   1.932
  149MYC    H2430828   5.734   5.833   1.916
  149MYC    H2530829   5.688   5.995   1.981
  149MYC    C1330830   5.880   5.926   2.036
  149MYC    H2230831   5.893   6.021   2.090
  149MYC    H2330832   5.979   5.910   1.991
  149MYC    C1230833   5.862   5.810   2.135
  149MYC    H2030834   5.845   5.715   2.082
  149MYC    H2130835   5.762   5.817   2.180
  149MYC    C1130836   5.978   5.799   2.235
  149MYC    H1830837   6.072   5.822   2.185
  149MYC    H1930838   5.987   5.696   2.274
  149MYC    C1030839   5.945   5.881   2.361
  149MYC    H1630840   5.916   5.980   2.323
  149MYC    H1730841   6.039   5.902   2.414
  149MYC     C930842   5.834   5.821   2.449
  149MYC    H1430843   5.875   5.732   2.497
  149MYC    H1530844   5.750   5.793   2.385
  149MYC     C830845   5.799   5.928   2.554
  149MYC    H1230846   5.715   5.976   2.503
  149MYC    H1330847   5.879   6.001   2.566
  149MYC     C730848   5.751   5.872   2.689
  149MYC    H1030849   5.789   5.772   2.716
  149MYC    H1130850   5.644   5.847   2.684
  149MYC     C630851   5.767   5.961   2.814
  149MYC     H830852   5.728   6.060   2.787
  149MYC     H930853   5.871   5.993   2.825
  149MYC     C530854   5.713   5.898   2.943
  149MYC     H630855   5.786   5.828   2.986
  149MYC     H730856   5.626   5.834   2.923
  149MYC     C430857   5.690   6.006   3.050
  149MYC     H430858   5.599   6.063   3.027
  149MYC     H530859   5.764   6.087   3.054
  149MYC     C230860   5.692   5.953   3.194
  149MYC     H230861   5.626   6.024   3.246
  149MYC     O330862   5.642   5.820   3.190
  149MYC     H330863   5.699   5.787   3.118
  149MYC     C130864   5.827   5.954   3.268
  149MYC     H130865   5.848   6.060   3.288
  149MYC    C8130866   5.943   5.904   3.183
  149MYC    O8230867   5.998   5.796   3.199
  149MYC    O8330868   6.002   5.997   3.105
  149MYC   6H1530869   6.081   5.953   3.070
  149MYC    C2030870   5.818   5.873   3.398
  149MYC    H3430871   5.755   5.783   3.392
  149MYC    H3530872   5.919   5.843   3.428
  149MYC    C2130873   5.776   5.956   3.521
  149MYC    H3630874   5.844   6.042   3.531
  149MYC    H3730875   5.686   6.005   3.482
  149MYC    C2230876   5.741   5.874   3.645
  149MYC    H3830877   5.662   5.800   3.627
  149MYC    H3930878   5.828   5.820   3.684
  149MYC    C2330879   5.707   5.959   3.769
  149MYC    H4030880   5.774   6.046   3.773
  149MYC    H4130881   5.605   5.999   3.760
  149MYC    C2430882   5.708   5.873   3.896
  149MYC    H4230883   5.652   5.783   3.868
  149MYC    H4330884   5.808   5.834   3.921
  149MYC    C2530885   5.635   5.932   4.018
  149MYC    H4430886   5.672   6.031   4.048
  149MYC    H4530887   5.528   5.938   3.994
  149MYC    C2630888   5.651   5.835   4.136
  149MYC    H4630889   5.609   5.740   4.099
  149MYC    H4730890   5.758   5.819   4.151
  149MYC    C2730891   5.581   5.882   4.265
  149MYC    H4830892   5.587   5.991   4.270
  149MYC    H4930893   5.477   5.851   4.250
  149MYC    C2830894   5.649   5.832   4.393
  149MYC    H5030895   5.677   5.726   4.381
  149MYC    H5130896   5.749   5.878   4.392
  149MYC    C2930897   5.570   5.860   4.522
  149MYC    H5230898   5.533   5.963   4.516
  149MYC    H5330899   5.484   5.791   4.523
  149MYC    C3030900   5.665   5.827   4.638
  149MYC    H5430901   5.732   5.744   4.613
  149MYC    H5530902   5.728   5.915   4.653
  149MYC    C3130903   5.592   5.794   4.769
  149MYC    H5630904   5.503   5.850   4.801
  149MYC    H5730905   5.573   5.686   4.775
  149MYC    C3230906   5.692   5.833   4.879
  149MYC    H5830907   5.786   5.776   4.876
  149MYC    H5930908   5.721   5.937   4.861
  149MYC    C3330909   5.643   5.825   5.024
  149MYC    H6030910   5.561   5.896   5.037
  149MYC    H6130911   5.596   5.727   5.041
  149MYC    C3430912   5.752   5.854   5.129
  149MYC    H6230913   5.840   5.791   5.110
  149MYC    H6330914   5.785   5.959   5.131
  149MYC    C3530915   5.687   5.827   5.266
  149MYC    H6430916   5.587   5.872   5.270
  149MYC    H6530917   5.667   5.720   5.263
  149MYC    C3630918   5.781   5.872   5.380
  149MYC    H6630919   5.868   5.806   5.385
  149MYC    H6730920   5.831   5.968   5.363
  149MYC    C3730921   5.714   5.858   5.518
  149MYC    H6830922   5.616   5.907   5.517
  149MYC    H6930923   5.695   5.752   5.538
  149MYC    C3830924   5.801   5.912   5.632
  149MYC    H7030925   5.905   5.892   5.607
  149MYC    H7130926   5.790   6.021   5.629
  149MYC    C3930927   5.776   5.858   5.774
  149MYC    H7230928   5.684   5.906   5.810
  149MYC    H7330929   5.754   5.751   5.776
  149MYC    C4030930   5.887   5.885   5.877
  149MYC    H7430931   5.973   5.821   5.854
  149MYC    H7530932   5.916   5.990   5.865
  149MYC    C4130933   5.851   5.871   6.026
  149MYC    H7630934   5.742   5.883   6.031
  149MYC    H7730935   5.872   5.771   6.067
  149MYC    C4230936   5.922   5.975   6.114
  149MYC    H7830937   6.029   5.987   6.092
  149MYC    H7930938   5.875   6.072   6.093
  149MYC    C4330939   5.901   5.950   6.265
  149MYC    H8030940   5.903   6.039   6.329
  149MYC    H8130941   5.997   5.905   6.294
  149MYC    H8230942   5.815   5.887   6.290
  150SOL     OW30943   2.347   6.084  12.757
  150SOL    HW130944   2.408   6.164  12.761
  150SOL    HW230945   2.252   6.115  12.764
  151SOL     OW30946   4.209   0.498  12.757
  151SOL    HW130947   4.270   0.578  12.761
  151SOL    HW230948   4.114   0.529  12.764
  152SOL     OW30949   4.209   2.360  12.757
  152SOL    HW130950   4.270   2.440  12.761
  152SOL    HW230951   4.114   2.391  12.764
  153SOL     OW30952   4.209   4.222  12.757
  153SOL    HW130953   4.270   4.302  12.761
  153SOL    HW230954   4.114   4.253  12.764
  154SOL     OW30955   4.209   6.084  12.757
  154SOL    HW130956   4.270   6.164  12.761
  154SOL    HW230957   4.114   6.115  12.764
  155SOL     OW30958   6.071   0.498  12.757
  155SOL    HW130959   6.132   0.578  12.761
  155SOL    HW230960   5.976   0.529  12.764
  156SOL     OW30961   6.071   2.360  12.757
  156SOL    HW130962   6.132   2.440  12.761
  156SOL    HW230963   5.976   2.391  12.764
  157SOL     OW30964   6.071   4.222  12.757
  157SOL    HW130965   6.132   4.302  12.761
  157SOL    HW230966   5.976   4.253  12.764
  158SOL     OW30967   6.071   6.084  12.757
  158SOL    HW130968   6.132   6.164  12.761
  158SOL    HW230969   5.976   6.115  12.764
  159SOL     OW30970   1.537   0.997  12.756
  159SOL    HW130971   1.474   0.921  12.769
  159SOL    HW230972   1.585   1.015  12.842
  160SOL     OW30973   1.537   2.859  12.756
  160SOL    HW130974   1.474   2.783  12.769
  160SOL    HW230975   1.585   2.877  12.842
  161SOL     OW30976   1.537   4.721  12.756
  161SOL    HW130977   1.474   4.645  12.769
  161SOL    HW230978   1.585   4.739  12.842
  162SOL     OW30979   3.399   0.997  12.756
  162SOL    HW130980   3.336   0.921  12.769
  162SOL    HW230981   3.447   1.015  12.842
  163SOL     OW30982   3.399   2.859  12.756
  163SOL    HW130983   3.336   2.783  12.769
  163SOL    HW230984   3.447   2.877  12.842
  164SOL     OW30985   3.399   4.721  12.756
  164SOL    HW130986   3.336   4.645  12.769
  164SOL    HW230987   3.447   4.739  12.842
  165SOL     OW30988   5.261   0.997  12.756
  165SOL    HW130989   5.198   0.921  12.769
  165SOL    HW230990   5.309   1.015  12.842
  166SOL     OW30991   5.261   2.859  12.756
  166SOL    HW130992   5.198   2.783  12.769
  166SOL    HW230993   5.309   2.877  12.842
  167SOL     OW30994   5.261   4.721  12.756
  167SOL    HW130995   5.198   4.645  12.769
  167SOL    HW230996   5.309   4.739  12.842
  168SOL     OW30997   0.134   0.641   0.095
  168SOL    HW130998   0.089   0.553   0.112
  168SOL    HW230999   0.133   0.695   0.179
  169SOL     OW31000   0.134   2.503   0.095
  169SOL    HW131001   0.089   2.415   0.112
  169SOL    HW231002   0.133   2.557   0.179
  170SOL     OW31003   0.134   4.365   0.095
  170SOL    HW131004   0.089   4.277   0.112
  170SOL    HW231005   0.133   4.419   0.179
  171SOL     OW31006   0.134   6.227   0.095
  171SOL    HW131007   0.089   6.139   0.112
  171SOL    HW231008   0.133   6.281   0.179
  172SOL     OW31009   1.996   0.641   0.095
  172SOL    HW131010   1.951   0.553   0.112
  172SOL    HW231011   1.995   0.695   0.179
  173SOL     OW31012   1.996   2.503   0.095
  173SOL    HW131013   1.951   2.415   0.112
  173SOL    HW231014   1.995   2.557   0.179
  174SOL     OW31015   1.996   4.365   0.095
  174SOL    HW131016   1.951   4.277   0.112
  174SOL    HW231017   1.995   4.419   0.179
  175SOL     OW31018   1.996   6.227   0.095
  175SOL    HW131019   1.951   6.139   0.112
  175SOL    HW231020   1.995   6.281   0.179
  176SOL     OW31021   3.858   0.641   0.095
  176SOL    HW131022   3.813   0.553   0.112
  176SOL    HW231023   3.857   0.695   0.179
  177SOL     OW31024   3.858   2.503   0.095
  177SOL    HW131025   3.813   2.415   0.112
  177SOL    HW231026   3.857   2.557   0.179
  178SOL     OW31027   3.858   4.365   0.095
  178SOL    HW131028   3.813   4.277   0.112
  178SOL    HW231029   3.857   4.419   0.179
  179SOL     OW31030   3.858   6.227   0.095
  179SOL    HW131031   3.813   6.139   0.112
  179SOL    HW231032   3.857   6.281   0.179
  180SOL     OW31033   5.720   0.641   0.095
  180SOL    HW131034   5.675   0.553   0.112
  180SOL    HW231035   5.719   0.695   0.179
  181SOL     OW31036   5.720   2.503   0.095
  181SOL    HW131037   5.675   2.415   0.112
  181SOL    HW231038   5.719   2.557   0.179
  182SOL     OW31039   5.720   4.365   0.095
  182SOL    HW131040   5.675   4.277   0.112
  182SOL    HW231041   5.719   4.419   0.179
  183SOL     OW31042   5.720   6.227   0.095
  183SOL    HW131043   5.675   6.139   0.112
  183SOL    HW231044   5.719   6.281   0.179
  184SOL     OW31045   1.679   1.712   0.104
  184SOL    HW131046   1.638   1.689   0.016
  184SOL    HW231047   1.661   1.638   0.169
  185SOL     OW31048   1.679   3.574   0.104
  185SOL    HW131049   1.638   3.551   0.016
  185SOL    HW231050   1.661   3.500   0.169
  186SOL     OW31051   1.679   5.436   0.104
  186SOL    HW131052   1.638   5.413   0.016
  186SOL    HW231053   1.661   5.362   0.169
  187SOL     OW31054   3.541   1.712   0.104
  187SOL    HW131055   3.500   1.689   0.016
  187SOL    HW231056   3.523   1.638   0.169
  188SOL     OW31057   3.541   3.574   0.104
  188SOL    HW131058   3.500   3.551   0.016
  188SOL    HW231059   3.523   3.500   0.169
  189SOL     OW31060   3.541   5.436   0.104
  189SOL    HW131061   3.500   5.413   0.016
  189SOL    HW231062   3.523   5.362   0.169
  190SOL     OW31063   5.403   1.712   0.104
  190SOL    HW131064   5.362   1.689   0.016
  190SOL    HW231065   5.385   1.638   0.169
  191SOL     OW31066   5.403   3.574   0.104
  191SOL    HW131067   5.362   3.551   0.016
  191SOL    HW231068   5.385   3.500   0.169
  192SOL     OW31069   5.403   5.436   0.104
  192SOL    HW131070   5.362   5.413   0.016
  192SOL    HW231071   5.385   5.362   0.169
  193SOL     OW31072   0.500   1.383  12.740
  193SOL    HW131073   0.413   1.368  12.787
  193SOL    HW231074   0.483   1.409  12.645
  194SOL     OW31075   0.500   3.245  12.740
  194SOL    HW131076   0.413   3.230  12.787
  194SOL    HW231077   0.483   3.271  12.645
  195SOL     OW31078   0.500   5.107  12.740
  195SOL    HW131079   0.413   5.092  12.787
  195SOL    HW231080   0.483   5.133  12.645
  196SOL     OW31081   2.362   1.383  12.740
  196SOL    HW131082   2.275   1.368  12.787
  196SOL    HW231083   2.345   1.409  12.645
  197SOL     OW31084   2.362   3.245  12.740
  197SOL    HW131085   2.275   3.230  12.787
  197SOL    HW231086   2.345   3.271  12.645
  198SOL     OW31087   2.362   5.107  12.740
  198SOL    HW131088   2.275   5.092  12.787
  198SOL    HW231089   2.345   5.133  12.645
  199SOL     OW31090   4.224   1.383  12.740
  199SOL    HW131091   4.137   1.368  12.787
  199SOL    HW231092   4.207   1.409  12.645
  200SOL     OW31093   4.224   3.245  12.740
  200SOL    HW131094   4.137   3.230  12.787
  200SOL    HW231095   4.207   3.271  12.645
  201SOL     OW31096   4.224   5.107  12.740
  201SOL    HW131097   4.137   5.092  12.787
  201SOL    HW231098   4.207   5.133  12.645
  202SOL     OW31099   6.086   1.383  12.740
  202SOL    HW131100   5.999   1.368  12.787
  202SOL    HW231101   6.069   1.409  12.645
  203SOL     OW31102   6.086   3.245  12.740
  203SOL    HW131103   5.999   3.230  12.787
  203SOL    HW231104   6.069   3.271  12.645
  204SOL     OW31105   6.086   5.107  12.740
  204SOL    HW131106   5.999   5.092  12.787
  204SOL    HW231107   6.069   5.133  12.645
  205SOL     OW31108   0.309   0.033  12.737
  205SOL    HW131109   0.358   0.117  12.716
  205SOL    HW231110   0.371   6.418  12.782
  206SOL     OW31111   0.309   1.895  12.737
  206SOL    HW131112   0.358   1.979  12.716
  206SOL    HW231113   0.371   1.830  12.782
  207SOL     OW31114   0.309   3.757  12.737
  207SOL    HW131115   0.358   3.841  12.716
  207SOL    HW231116   0.371   3.692  12.782
  208SOL     OW31117   0.309   5.619  12.737
  208SOL    HW131118   0.358   5.703  12.716
  208SOL    HW231119   0.371   5.554  12.782
  209SOL     OW31120   2.171   0.033  12.737
  209SOL    HW131121   2.220   0.117  12.716
  209SOL    HW231122   2.233   6.418  12.782
  210SOL     OW31123   2.171   1.895  12.737
  210SOL    HW131124   2.220   1.979  12.716
  210SOL    HW231125   2.233   1.830  12.782
  211SOL     OW31126   2.171   3.757  12.737
  211SOL    HW131127   2.220   3.841  12.716
  211SOL    HW231128   2.233   3.692  12.782
  212SOL     OW31129   2.171   5.619  12.737
  212SOL    HW131130   2.220   5.703  12.716
  212SOL    HW231131   2.233   5.554  12.782
  213SOL     OW31132   4.033   0.033  12.737
  213SOL    HW131133   4.082   0.117  12.716
  213SOL    HW231134   4.095   6.418  12.782
  214SOL     OW31135   4.033   1.895  12.737
  214SOL    HW131136   4.082   1.979  12.716
  214SOL    HW231137   4.095   1.830  12.782
  215SOL     OW31138   4.033   3.757  12.737
  215SOL    HW131139   4.082   3.841  12.716
  215SOL    HW231140   4.095   3.692  12.782
  216SOL     OW31141   4.033   5.619  12.737
  216SOL    HW131142   4.082   5.703  12.716
  216SOL    HW231143   4.095   5.554  12.782
  217SOL     OW31144   5.895   0.033  12.737
  217SOL    HW131145   5.944   0.117  12.716
  217SOL    HW231146   5.957   6.418  12.782
  218SOL     OW31147   5.895   1.895  12.737
  218SOL    HW131148   5.944   1.979  12.716
  218SOL    HW231149   5.957   1.830  12.782
  219SOL     OW31150   5.895   3.757  12.737
  219SOL    HW131151   5.944   3.841  12.716
  219SOL    HW231152   5.957   3.692  12.782
  220SOL     OW31153   5.895   5.619  12.737
  220SOL    HW131154   5.944   5.703  12.716
  220SOL    HW231155   5.957   5.554  12.782
  221SOL     OW31156   1.364   0.050  12.734
  221SOL    HW131157   1.399   0.009  12.650
  221SOL    HW231158   1.274   0.012  12.754
  222SOL     OW31159   1.364   1.912  12.734
  222SOL    HW131160   1.399   1.871  12.650
  222SOL    HW231161   1.274   1.874  12.754
  223SOL     OW31162   1.364   3.774  12.734
  223SOL    HW131163   1.399   3.733  12.650
  223SOL    HW231164   1.274   3.736  12.754
  224SOL     OW31165   1.364   5.636  12.734
  224SOL    HW131166   1.399   5.595  12.650
  224SOL    HW231167   1.274   5.598  12.754
  225SOL     OW31168   3.226   0.050  12.734
  225SOL    HW131169   3.261   0.009  12.650
  225SOL    HW231170   3.136   0.012  12.754
  226SOL     OW31171   3.226   1.912  12.734
  226SOL    HW131172   3.261   1.871  12.650
  226SOL    HW231173   3.136   1.874  12.754
  227SOL     OW31174   3.226   3.774  12.734
  227SOL    HW131175   3.261   3.733  12.650
  227SOL    HW231176   3.136   3.736  12.754
  228SOL     OW31177   3.226   5.636  12.734
  228SOL    HW131178   3.261   5.595  12.650
  228SOL    HW231179   3.136   5.598  12.754
  229SOL     OW31180   5.088   0.050  12.734
  229SOL    HW131181   5.123   0.009  12.650
  229SOL    HW231182   4.998   0.012  12.754
  230SOL     OW31183   5.088   1.912  12.734
  230SOL    HW131184   5.123   1.871  12.650
  230SOL    HW231185   4.998   1.874  12.754
  231SOL     OW31186   5.088   3.774  12.734
  231SOL    HW131187   5.123   3.733  12.650
  231SOL    HW231188   4.998   3.736  12.754
  232SOL     OW31189   5.088   5.636  12.734
  232SOL    HW131190   5.123   5.595  12.650
  232SOL    HW231191   4.998   5.598  12.754
  233SOL     OW31192   1.283   1.795   0.123
  233SOL    HW131193   1.327   1.859   0.059
  233SOL    HW231194   1.233   1.847   0.193
  234SOL     OW31195   1.283   3.657   0.123
  234SOL    HW131196   1.327   3.721   0.059
  234SOL    HW231197   1.233   3.709   0.193
  235SOL     OW31198   1.283   5.519   0.123
  235SOL    HW131199   1.327   5.583   0.059
  235SOL    HW231200   1.233   5.571   0.193
  236SOL     OW31201   3.145   1.795   0.123
  236SOL    HW131202   3.189   1.859   0.059
  236SOL    HW231203   3.095   1.847   0.193
  237SOL     OW31204   3.145   3.657   0.123
  237SOL    HW131205   3.189   3.721   0.059
  237SOL    HW231206   3.095   3.709   0.193
  238SOL     OW31207   3.145   5.519   0.123
  238SOL    HW131208   3.189   5.583   0.059
  238SOL    HW231209   3.095   5.571   0.193
  239SOL     OW31210   5.007   1.795   0.123
  239SOL    HW131211   5.051   1.859   0.059
  239SOL    HW231212   4.957   1.847   0.193
  240SOL     OW31213   5.007   3.657   0.123
  240SOL    HW131214   5.051   3.721   0.059
  240SOL    HW231215   4.957   3.709   0.193
  241SOL     OW31216   5.007   5.519   0.123
  241SOL    HW131217   5.051   5.583   0.059
  241SOL    HW231218   4.957   5.571   0.193
  242SOL     OW31219   0.684   1.614  12.720
  242SOL    HW131220   0.693   1.624  12.621
  242SOL    HW231221   0.644   1.525  12.741
  243SOL     OW31222   0.684   3.476  12.720
  243SOL    HW131223   0.693   3.486  12.621
  243SOL    HW231224   0.644   3.387  12.741
  244SOL     OW31225   0.684   5.338  12.720
  244SOL    HW131226   0.693   5.348  12.621
  244SOL    HW231227   0.644   5.249  12.741
  245SOL     OW31228   2.546   1.614  12.720
  245SOL    HW131229   2.555   1.624  12.621
  245SOL    HW231230   2.506   1.525  12.741
  246SOL     OW31231   2.546   3.476  12.720
  246SOL    HW131232   2.555   3.486  12.621
  246SOL    HW231233   2.506   3.387  12.741
  247SOL     OW31234   2.546   5.338  12.720
  247SOL    HW131235   2.555   5.348  12.621
  247SOL    HW231236   2.506   5.249  12.741
  248SOL     OW31237   4.408   1.614  12.720
  248SOL    HW131238   4.417   1.624  12.621
  248SOL    HW231239   4.368   1.525  12.741
  249SOL     OW31240   4.408   3.476  12.720
  249SOL    HW131241   4.417   3.486  12.621
  249SOL    HW231242   4.368   3.387  12.741
  250SOL     OW31243   4.408   5.338  12.720
  250SOL    HW131244   4.417   5.348  12.621
  250SOL    HW231245   4.368   5.249  12.741
  251SOL     OW31246   6.270   1.614  12.720
  251SOL    HW131247   6.279   1.624  12.621
  251SOL    HW231248   6.230   1.525  12.741
  252SOL     OW31249   6.270   3.476  12.720
  252SOL    HW131250   6.279   3.486  12.621
  252SOL    HW231251   6.230   3.387  12.741
  253SOL     OW31252   6.270   5.338  12.720
  253SOL    HW131253   6.279   5.348  12.621
  253SOL    HW231254   6.230   5.249  12.741
  254SOL     OW31255   1.701   0.920   0.144
  254SOL    HW131256   1.796   0.891   0.152
  254SOL    HW231257   1.693   0.985   0.069
  255SOL     OW31258   1.701   2.782   0.144
  255SOL    HW131259   1.796   2.753   0.152
  255SOL    HW231260   1.693   2.847   0.069
  256SOL     OW31261   1.701   4.644   0.144
  256SOL    HW131262   1.796   4.615   0.152
  256SOL    HW231263   1.693   4.709   0.069
  257SOL     OW31264   3.563   0.920   0.144
  257SOL    HW131265   3.658   0.891   0.152
  257SOL    HW231266   3.555   0.985   0.069
  258SOL     OW31267   3.563   2.782   0.144
  258SOL    HW131268   3.658   2.753   0.152
  258SOL    HW231269   3.555   2.847   0.069
  259SOL     OW31270   3.563   4.644   0.144
  259SOL    HW131271   3.658   4.615   0.152
  259SOL    HW231272   3.555   4.709   0.069
  260SOL     OW31273   5.425   0.920   0.144
  260SOL    HW131274   5.520   0.891   0.152
  260SOL    HW231275   5.417   0.985   0.069
  261SOL     OW31276   5.425   2.782   0.144
  261SOL    HW131277   5.520   2.753   0.152
  261SOL    HW231278   5.417   2.847   0.069
  262SOL     OW31279   5.425   4.644   0.144
  262SOL    HW131280   5.520   4.615   0.152
  262SOL    HW231281   5.417   4.709   0.069
  263SOL     OW31282   0.051   0.084  12.699
  263SOL    HW131283   0.102   0.085  12.613
  263SOL    HW231284   0.107   0.042  12.770
  264SOL     OW31285   0.051   1.946  12.699
  264SOL    HW131286   0.102   1.947  12.613
  264SOL    HW231287   0.107   1.904  12.770
  265SOL     OW31288   0.051   3.808  12.699
  265SOL    HW131289   0.102   3.809  12.613
  265SOL    HW231290   0.107   3.766  12.770
  266SOL     OW31291   0.051   5.670  12.699
  266SOL    HW131292   0.102   5.671  12.613
  266SOL    HW231293   0.107   5.628  12.770
  267SOL     OW31294   0.319   0.061   0.150
  267SOL    HW131295   0.308   0.155   0.183
  267SOL    HW231296   0.314   6.448   0.227
  268SOL     OW31297   0.319   1.923   0.150
  268SOL    HW131298   0.308   2.017   0.183
  268SOL    HW231299   0.314   1.860   0.227
  269SOL     OW31300   0.319   3.785   0.150
  269SOL    HW131301   0.308   3.879   0.183
  269SOL    HW231302   0.314   3.722   0.227
  270SOL     OW31303   0.319   5.647   0.150
  270SOL    HW131304   0.308   5.741   0.183
  270SOL    HW231305   0.314   5.584   0.227
  271SOL     OW31306   2.181   0.061   0.150
  271SOL    HW131307   2.170   0.155   0.183
  271SOL    HW231308   2.176   6.448   0.227
  272SOL     OW31309   2.181   1.923   0.150
  272SOL    HW131310   2.170   2.017   0.183
  272SOL    HW231311   2.176   1.860   0.227
  273SOL     OW31312   2.181   3.785   0.150
  273SOL    HW131313   2.170   3.879   0.183
  273SOL    HW231314   2.176   3.722   0.227
  274SOL     OW31315   2.181   5.647   0.150
  274SOL    HW131316   2.170   5.741   0.183
  274SOL    HW231317   2.176   5.584   0.227
  275SOL     OW31318   4.043   0.061   0.150
  275SOL    HW131319   4.032   0.155   0.183
  275SOL    HW231320   4.038   6.448   0.227
  276SOL     OW31321   4.043   1.923   0.150
  276SOL    HW131322   4.032   2.017   0.183
  276SOL    HW231323   4.038   1.860   0.227
  277SOL     OW31324   4.043   3.785   0.150
  277SOL    HW131325   4.032   3.879   0.183
  277SOL    HW231326   4.038   3.722   0.227
  278SOL     OW31327   4.043   5.647   0.150
  278SOL    HW131328   4.032   5.741   0.183
  278SOL    HW231329   4.038   5.584   0.227
  279SOL     OW31330   5.905   0.061   0.150
  279SOL    HW131331   5.894   0.155   0.183
  279SOL    HW231332   5.900   6.448   0.227
  280SOL     OW31333   5.905   1.923   0.150
  280SOL    HW131334   5.894   2.017   0.183
  280SOL    HW231335   5.900   1.860   0.227
  281SOL     OW31336   5.905   3.785   0.150
  281SOL    HW131337   5.894   3.879   0.183
  281SOL    HW231338   5.900   3.722   0.227
  282SOL     OW31339   5.905   5.647   0.150
  282SOL    HW131340   5.894   5.741   0.183
  282SOL    HW231341   5.900   5.584   0.227
  283SOL     OW31342   1.552   0.272  12.691
  283SOL    HW131343   1.491   0.197  12.714
  283SOL    HW231344   1.574   0.324  12.774
  284SOL     OW31345   1.552   2.134  12.691
  284SOL    HW131346   1.491   2.059  12.714
  284SOL    HW231347   1.574   2.186  12.774
  285SOL     OW31348   1.552   3.996  12.691
  285SOL    HW131349   1.491   3.921  12.714
  285SOL    HW231350   1.574   4.048  12.774
  286SOL     OW31351   1.552   5.858  12.691
  286SOL    HW131352   1.491   5.783  12.714
  286SOL    HW231353   1.574   5.910  12.774
  287SOL     OW31354   3.414   0.272  12.691
  287SOL    HW131355   3.353   0.197  12.714
  287SOL    HW231356   3.436   0.324  12.774
  288SOL     OW31357   3.414   2.134  12.691
  288SOL    HW131358   3.353   2.059  12.714
  288SOL    HW231359   3.436   2.186  12.774
  289SOL     OW31360   3.414   3.996  12.691
  289SOL    HW131361   3.353   3.921  12.714
  289SOL    HW231362   3.436   4.048  12.774
  290SOL     OW31363   3.414   5.858  12.691
  290SOL    HW131364   3.353   5.783  12.714
  290SOL    HW231365   3.436   5.910  12.774
  291SOL     OW31366   5.276   0.272  12.691
  291SOL    HW131367   5.215   0.197  12.714
  291SOL    HW231368   5.298   0.324  12.774
  292SOL     OW31369   5.276   2.134  12.691
  292SOL    HW131370   5.215   2.059  12.714
  292SOL    HW231371   5.298   2.186  12.774
  293SOL     OW31372   5.276   3.996  12.691
  293SOL    HW131373   5.215   3.921  12.714
  293SOL    HW231374   5.298   4.048  12.774
  294SOL     OW31375   5.276   5.858  12.691
  294SOL    HW131376   5.215   5.783  12.714
  294SOL    HW231377   5.298   5.910  12.774
  295SOL     OW31378   0.618   0.962  12.689
  295SOL    HW131379   0.625   1.046  12.635
  295SOL    HW231380   0.664   0.975  12.777
  296SOL     OW31381   0.618   2.824  12.689
  296SOL    HW131382   0.625   2.908  12.635
  296SOL    HW231383   0.664   2.837  12.777
  297SOL     OW31384   0.618   4.686  12.689
  297SOL    HW131385   0.625   4.770  12.635
  297SOL    HW231386   0.664   4.699  12.777
  298SOL     OW31387   2.480   0.962  12.689
  298SOL    HW131388   2.487   1.046  12.635
  298SOL    HW231389   2.526   0.975  12.777
  299SOL     OW31390   2.480   2.824  12.689
  299SOL    HW131391   2.487   2.908  12.635
  299SOL    HW231392   2.526   2.837  12.777
  300SOL     OW31393   2.480   4.686  12.689
  300SOL    HW131394   2.487   4.770  12.635
  300SOL    HW231395   2.526   4.699  12.777
  301SOL     OW31396   4.342   0.962  12.689
  301SOL    HW131397   4.349   1.046  12.635
  301SOL    HW231398   4.388   0.975  12.777
  302SOL     OW31399   4.342   2.824  12.689
  302SOL    HW131400   4.349   2.908  12.635
  302SOL    HW231401   4.388   2.837  12.777
  303SOL     OW31402   4.342   4.686  12.689
  303SOL    HW131403   4.349   4.770  12.635
  303SOL    HW231404   4.388   4.699  12.777
  304SOL     OW31405   6.204   0.962  12.689
  304SOL    HW131406   6.211   1.046  12.635
  304SOL    HW231407   6.250   0.975  12.777
  305SOL     OW31408   6.204   2.824  12.689
  305SOL    HW131409   6.211   2.908  12.635
  305SOL    HW231410   6.250   2.837  12.777
  306SOL     OW31411   6.204   4.686  12.689
  306SOL    HW131412   6.211   4.770  12.635
  306SOL    HW231413   6.250   4.699  12.777
  307SOL     OW31414   1.195   1.333  12.685
  307SOL    HW131415   1.096   1.322  12.687
  307SOL    HW231416   1.229   1.348  12.778
  308SOL     OW31417   1.195   3.195  12.685
  308SOL    HW131418   1.096   3.184  12.687
  308SOL    HW231419   1.229   3.210  12.778
  309SOL     OW31420   1.195   5.057  12.685
  309SOL    HW131421   1.096   5.046  12.687
  309SOL    HW231422   1.229   5.072  12.778
  310SOL     OW31423   3.057   1.333  12.685
  310SOL    HW131424   2.958   1.322  12.687
  310SOL    HW231425   3.091   1.348  12.778
  311SOL     OW31426   3.057   3.195  12.685
  311SOL    HW131427   2.958   3.184  12.687
  311SOL    HW231428   3.091   3.210  12.778
  312SOL     OW31429   3.057   5.057  12.685
  312SOL    HW131430   2.958   5.046  12.687
  312SOL    HW231431   3.091   5.072  12.778
  313SOL     OW31432   4.919   1.333  12.685
  313SOL    HW131433   4.820   1.322  12.687
  313SOL    HW231434   4.953   1.348  12.778
  314SOL     OW31435   4.919   3.195  12.685
  314SOL    HW131436   4.820   3.184  12.687
  314SOL    HW231437   4.953   3.210  12.778
  315SOL     OW31438   4.919   5.057  12.685
  315SOL    HW131439   4.820   5.046  12.687
  315SOL    HW231440   4.953   5.072  12.778
  316SOL     OW31441   0.039   1.594  12.683
  316SOL    HW131442   0.020   1.498  12.704
  316SOL    HW231443   0.006   1.652  12.758
  317SOL     OW31444   0.626   0.120  12.683
  317SOL    HW131445   0.724   0.098  12.690
  317SOL    HW231446   0.595   0.103  12.590
  318SOL     OW31447   0.039   3.456  12.683
  318SOL    HW131448   0.020   3.360  12.704
  318SOL    HW231449   0.006   3.514  12.758
  319SOL     OW31450   0.626   1.982  12.683
  319SOL    HW131451   0.724   1.960  12.690
  319SOL    HW231452   0.595   1.965  12.590
  320SOL     OW31453   0.039   5.318  12.683
  320SOL    HW131454   0.020   5.222  12.704
  320SOL    HW231455   0.006   5.376  12.758
  321SOL     OW31456   0.626   3.844  12.683
  321SOL    HW131457   0.724   3.822  12.690
  321SOL    HW231458   0.595   3.827  12.590
  322SOL     OW31459   0.626   5.706  12.683
  322SOL    HW131460   0.724   5.684  12.690
  322SOL    HW231461   0.595   5.689  12.590
  323SOL     OW31462   1.901   1.594  12.683
  323SOL    HW131463   1.882   1.498  12.704
  323SOL    HW231464   1.868   1.652  12.758
  324SOL     OW31465   2.488   0.120  12.683
  324SOL    HW131466   2.586   0.098  12.690
  324SOL    HW231467   2.457   0.103  12.590
  325SOL     OW31468   1.901   3.456  12.683
  325SOL    HW131469   1.882   3.360  12.704
  325SOL    HW231470   1.868   3.514  12.758
  326SOL     OW31471   2.488   1.982  12.683
  326SOL    HW131472   2.586   1.960  12.690
  326SOL    HW231473   2.457   1.965  12.590
  327SOL     OW31474   1.901   5.318  12.683
  327SOL    HW131475   1.882   5.222  12.704
  327SOL    HW231476   1.868   5.376  12.758
  328SOL     OW31477   2.488   3.844  12.683
  328SOL    HW131478   2.586   3.822  12.690
  328SOL    HW231479   2.457   3.827  12.590
  329SOL     OW31480   2.488   5.706  12.683
  329SOL    HW131481   2.586   5.684  12.690
  329SOL    HW231482   2.457   5.689  12.590
  330SOL     OW31483   3.763   1.594  12.683
  330SOL    HW131484   3.744   1.498  12.704
  330SOL    HW231485   3.730   1.652  12.758
  331SOL     OW31486   4.350   0.120  12.683
  331SOL    HW131487   4.448   0.098  12.690
  331SOL    HW231488   4.319   0.103  12.590
  332SOL     OW31489   3.763   3.456  12.683
  332SOL    HW131490   3.744   3.360  12.704
  332SOL    HW231491   3.730   3.514  12.758
  333SOL     OW31492   4.350   1.982  12.683
  333SOL    HW131493   4.448   1.960  12.690
  333SOL    HW231494   4.319   1.965  12.590
  334SOL     OW31495   3.763   5.318  12.683
  334SOL    HW131496   3.744   5.222  12.704
  334SOL    HW231497   3.730   5.376  12.758
  335SOL     OW31498   4.350   3.844  12.683
  335SOL    HW131499   4.448   3.822  12.690
  335SOL    HW231500   4.319   3.827  12.590
  336SOL     OW31501   4.350   5.706  12.683
  336SOL    HW131502   4.448   5.684  12.690
  336SOL    HW231503   4.319   5.689  12.590
  337SOL     OW31504   5.625   1.594  12.683
  337SOL    HW131505   5.606   1.498  12.704
  337SOL    HW231506   5.592   1.652  12.758
  338SOL     OW31507   6.212   0.120  12.683
  338SOL    HW131508   6.310   0.098  12.690
  338SOL    HW231509   6.181   0.103  12.590
  339SOL     OW31510   5.625   3.456  12.683
  339SOL    HW131511   5.606   3.360  12.704
  339SOL    HW231512   5.592   3.514  12.758
  340SOL     OW31513   6.212   1.982  12.683
  340SOL    HW131514   6.310   1.960  12.690
  340SOL    HW231515   6.181   1.965  12.590
  341SOL     OW31516   5.625   5.318  12.683
  341SOL    HW131517   5.606   5.222  12.704
  341SOL    HW231518   5.592   5.376  12.758
  342SOL     OW31519   6.212   3.844  12.683
  342SOL    HW131520   6.310   3.822  12.690
  342SOL    HW231521   6.181   3.827  12.590
  343SOL     OW31522   6.212   5.706  12.683
  343SOL    HW131523   6.310   5.684  12.690
  343SOL    HW231524   6.181   5.689  12.590
  344SOL     OW31525   0.242   0.626  12.679
  344SOL    HW131526   0.149   0.624  12.716
  344SOL    HW231527   0.243   0.587  12.587
  345SOL     OW31528   0.242   2.488  12.679
  345SOL    HW131529   0.149   2.486  12.716
  345SOL    HW231530   0.243   2.449  12.587
  346SOL     OW31531   0.242   4.350  12.679
  346SOL    HW131532   0.149   4.348  12.716
  346SOL    HW231533   0.243   4.311  12.587
  347SOL     OW31534   0.242   6.212  12.679
  347SOL    HW131535   0.149   6.210  12.716
  347SOL    HW231536   0.243   6.173  12.587
  348SOL     OW31537   2.104   0.626  12.679
  348SOL    HW131538   2.011   0.624  12.716
  348SOL    HW231539   2.105   0.587  12.587
  349SOL     OW31540   2.104   2.488  12.679
  349SOL    HW131541   2.011   2.486  12.716
  349SOL    HW231542   2.105   2.449  12.587
  350SOL     OW31543   2.104   4.350  12.679
  350SOL    HW131544   2.011   4.348  12.716
  350SOL    HW231545   2.105   4.311  12.587
  351SOL     OW31546   2.104   6.212  12.679
  351SOL    HW131547   2.011   6.210  12.716
  351SOL    HW231548   2.105   6.173  12.587
  352SOL     OW31549   3.966   0.626  12.679
  352SOL    HW131550   3.873   0.624  12.716
  352SOL    HW231551   3.967   0.587  12.587
  353SOL     OW31552   3.966   2.488  12.679
  353SOL    HW131553   3.873   2.486  12.716
  353SOL    HW231554   3.967   2.449  12.587
  354SOL     OW31555   3.966   4.350  12.679
  354SOL    HW131556   3.873   4.348  12.716
  354SOL    HW231557   3.967   4.311  12.587
  355SOL     OW31558   3.966   6.212  12.679
  355SOL    HW131559   3.873   6.210  12.716
  355SOL    HW231560   3.967   6.173  12.587
  356SOL     OW31561   5.828   0.626  12.679
  356SOL    HW131562   5.735   0.624  12.716
  356SOL    HW231563   5.829   0.587  12.587
  357SOL     OW31564   5.828   2.488  12.679
  357SOL    HW131565   5.735   2.486  12.716
  357SOL    HW231566   5.829   2.449  12.587
  358SOL     OW31567   5.828   4.350  12.679
  358SOL    HW131568   5.735   4.348  12.716
  358SOL    HW231569   5.829   4.311  12.587
  359SOL     OW31570   5.828   6.212  12.679
  359SOL    HW131571   5.735   6.210  12.716
  359SOL    HW231572   5.829   6.173  12.587
  360SOL     OW31573   0.878   0.452   0.174
  360SOL    HW131574   0.846   0.524   0.112
  360SOL    HW231575   0.902   0.371   0.121
  361SOL     OW31576   0.878   2.314   0.174
  361SOL    HW131577   0.846   2.386   0.112
  361SOL    HW231578   0.902   2.233   0.121
  362SOL     OW31579   0.878   4.176   0.174
  362SOL    HW131580   0.846   4.248   0.112
  362SOL    HW231581   0.902   4.095   0.121
  363SOL     OW31582   0.878   6.038   0.174
  363SOL    HW131583   0.846   6.110   0.112
  363SOL    HW231584   0.902   5.957   0.121
  364SOL     OW31585   2.740   0.452   0.174
  364SOL    HW131586   2.708   0.524   0.112
  364SOL    HW231587   2.764   0.371   0.121
  365SOL     OW31588   2.740   2.314   0.174
  365SOL    HW131589   2.708   2.386   0.112
  365SOL    HW231590   2.764   2.233   0.121
  366SOL     OW31591   2.740   4.176   0.174
  366SOL    HW131592   2.708   4.248   0.112
  366SOL    HW231593   2.764   4.095   0.121
  367SOL     OW31594   2.740   6.038   0.174
  367SOL    HW131595   2.708   6.110   0.112
  367SOL    HW231596   2.764   5.957   0.121
  368SOL     OW31597   4.602   0.452   0.174
  368SOL    HW131598   4.570   0.524   0.112
  368SOL    HW231599   4.626   0.371   0.121
  369SOL     OW31600   4.602   2.314   0.174
  369SOL    HW131601   4.570   2.386   0.112
  369SOL    HW231602   4.626   2.233   0.121
  370SOL     OW31603   4.602   4.176   0.174
  370SOL    HW131604   4.570   4.248   0.112
  370SOL    HW231605   4.626   4.095   0.121
  371SOL     OW31606   4.602   6.038   0.174
  371SOL    HW131607   4.570   6.110   0.112
  371SOL    HW231608   4.626   5.957   0.121
  372SOL     OW31609   0.031   0.366   0.179
  372SOL    HW131610   6.399   0.409   0.218
  372SOL    HW231611   0.003   0.293   0.116
  373SOL     OW31612   0.031   2.228   0.179
  373SOL    HW131613   6.399   2.271   0.218
  373SOL    HW231614   0.003   2.155   0.116
  374SOL     OW31615   0.031   4.090   0.179
  374SOL    HW131616   6.399   4.133   0.218
  374SOL    HW231617   0.003   4.017   0.116
  375SOL     OW31618   0.031   5.952   0.179
  375SOL    HW131619   6.399   5.995   0.218
  375SOL    HW231620   0.003   5.879   0.116
  376SOL     OW31621   1.893   0.366   0.179
  376SOL    HW131622   1.811   0.409   0.218
  376SOL    HW231623   1.865   0.293   0.116
  377SOL     OW31624   1.893   2.228   0.179
  377SOL    HW131625   1.811   2.271   0.218
  377SOL    HW231626   1.865   2.155   0.116
  378SOL     OW31627   1.893   4.090   0.179
  378SOL    HW131628   1.811   4.133   0.218
  378SOL    HW231629   1.865   4.017   0.116
  379SOL     OW31630   1.893   5.952   0.179
  379SOL    HW131631   1.811   5.995   0.218
  379SOL    HW231632   1.865   5.879   0.116
  380SOL     OW31633   3.755   0.366   0.179
  380SOL    HW131634   3.673   0.409   0.218
  380SOL    HW231635   3.727   0.293   0.116
  381SOL     OW31636   3.755   2.228   0.179
  381SOL    HW131637   3.673   2.271   0.218
  381SOL    HW231638   3.727   2.155   0.116
  382SOL     OW31639   3.755   4.090   0.179
  382SOL    HW131640   3.673   4.133   0.218
  382SOL    HW231641   3.727   4.017   0.116
  383SOL     OW31642   3.755   5.952   0.179
  383SOL    HW131643   3.673   5.995   0.218
  383SOL    HW231644   3.727   5.879   0.116
  384SOL     OW31645   5.617   0.366   0.179
  384SOL    HW131646   5.535   0.409   0.218
  384SOL    HW231647   5.589   0.293   0.116
  385SOL     OW31648   5.617   2.228   0.179
  385SOL    HW131649   5.535   2.271   0.218
  385SOL    HW231650   5.589   2.155   0.116
  386SOL     OW31651   5.617   4.090   0.179
  386SOL    HW131652   5.535   4.133   0.218
  386SOL    HW231653   5.589   4.017   0.116
  387SOL     OW31654   5.617   5.952   0.179
  387SOL    HW131655   5.535   5.995   0.218
  387SOL    HW231656   5.589   5.879   0.116
  388SOL     OW31657   0.606   0.743   0.184
  388SOL    HW131658   0.656   0.828   0.165
  388SOL    HW231659   0.518   0.745   0.136
  389SOL     OW31660   0.606   2.605   0.184
  389SOL    HW131661   0.656   2.690   0.165
  389SOL    HW231662   0.518   2.607   0.136
  390SOL     OW31663   0.606   4.467   0.184
  390SOL    HW131664   0.656   4.552   0.165
  390SOL    HW231665   0.518   4.469   0.136
  391SOL     OW31666   0.606   6.329   0.184
  391SOL    HW131667   0.656   6.414   0.165
  391SOL    HW231668   0.518   6.331   0.136
  392SOL     OW31669   2.468   0.743   0.184
  392SOL    HW131670   2.518   0.828   0.165
  392SOL    HW231671   2.380   0.745   0.136
  393SOL     OW31672   2.468   2.605   0.184
  393SOL    HW131673   2.518   2.690   0.165
  393SOL    HW231674   2.380   2.607   0.136
  394SOL     OW31675   2.468   4.467   0.184
  394SOL    HW131676   2.518   4.552   0.165
  394SOL    HW231677   2.380   4.469   0.136
  395SOL     OW31678   2.468   6.329   0.184
  395SOL    HW131679   2.518   6.414   0.165
  395SOL    HW231680   2.380   6.331   0.136
  396SOL     OW31681   4.330   0.743   0.184
  396SOL    HW131682   4.380   0.828   0.165
  396SOL    HW231683   4.242   0.745   0.136
  397SOL     OW31684   4.330   2.605   0.184
  397SOL    HW131685   4.380   2.690   0.165
  397SOL    HW231686   4.242   2.607   0.136
  398SOL     OW31687   4.330   4.467   0.184
  398SOL    HW131688   4.380   4.552   0.165
  398SOL    HW231689   4.242   4.469   0.136
  399SOL     OW31690   4.330   6.329   0.184
  399SOL    HW131691   4.380   6.414   0.165
  399SOL    HW231692   4.242   6.331   0.136
  400SOL     OW31693   6.192   0.743   0.184
  400SOL    HW131694   6.242   0.828   0.165
  400SOL    HW231695   6.104   0.745   0.136
  401SOL     OW31696   6.192   2.605   0.184
  401SOL    HW131697   6.242   2.690   0.165
  401SOL    HW231698   6.104   2.607   0.136
  402SOL     OW31699   6.192   4.467   0.184
  402SOL    HW131700   6.242   4.552   0.165
  402SOL    HW231701   6.104   4.469   0.136
  403SOL     OW31702   6.192   6.329   0.184
  403SOL    HW131703   6.242   6.414   0.165
  403SOL    HW231704   6.104   6.331   0.136
  404SOL     OW31705   0.091   1.238   0.185
  404SOL    HW131706   0.090   1.191   0.273
  404SOL    HW231707   0.173   1.210   0.134
  405SOL     OW31708   0.091   3.100   0.185
  405SOL    HW131709   0.090   3.053   0.273
  405SOL    HW231710   0.173   3.072   0.134
  406SOL     OW31711   0.091   4.962   0.185
  406SOL    HW131712   0.090   4.915   0.273
  406SOL    HW231713   0.173   4.934   0.134
  407SOL     OW31714   1.953   1.238   0.185
  407SOL    HW131715   1.952   1.191   0.273
  407SOL    HW231716   2.035   1.210   0.134
  408SOL     OW31717   1.953   3.100   0.185
  408SOL    HW131718   1.952   3.053   0.273
  408SOL    HW231719   2.035   3.072   0.134
  409SOL     OW31720   1.953   4.962   0.185
  409SOL    HW131721   1.952   4.915   0.273
  409SOL    HW231722   2.035   4.934   0.134
  410SOL     OW31723   3.815   1.238   0.185
  410SOL    HW131724   3.814   1.191   0.273
  410SOL    HW231725   3.897   1.210   0.134
  411SOL     OW31726   3.815   3.100   0.185
  411SOL    HW131727   3.814   3.053   0.273
  411SOL    HW231728   3.897   3.072   0.134
  412SOL     OW31729   3.815   4.962   0.185
  412SOL    HW131730   3.814   4.915   0.273
  412SOL    HW231731   3.897   4.934   0.134
  413SOL     OW31732   5.677   1.238   0.185
  413SOL    HW131733   5.676   1.191   0.273
  413SOL    HW231734   5.759   1.210   0.134
  414SOL     OW31735   5.677   3.100   0.185
  414SOL    HW131736   5.676   3.053   0.273
  414SOL    HW231737   5.759   3.072   0.134
  415SOL     OW31738   5.677   4.962   0.185
  415SOL    HW131739   5.676   4.915   0.273
  415SOL    HW231740   5.759   4.934   0.134
  416SOL     OW31741   1.676   1.278   0.189
  416SOL    HW131742   1.775   1.286   0.203
  416SOL    HW231743   1.631   1.362   0.220
  417SOL     OW31744   1.676   3.140   0.189
  417SOL    HW131745   1.775   3.148   0.203
  417SOL    HW231746   1.631   3.224   0.220
  418SOL     OW31747   1.676   5.002   0.189
  418SOL    HW131748   1.775   5.010   0.203
  418SOL    HW231749   1.631   5.086   0.220
  419SOL     OW31750   3.538   1.278   0.189
  419SOL    HW131751   3.637   1.286   0.203
  419SOL    HW231752   3.493   1.362   0.220
  420SOL     OW31753   3.538   3.140   0.189
  420SOL    HW131754   3.637   3.148   0.203
  420SOL    HW231755   3.493   3.224   0.220
  421SOL     OW31756   3.538   5.002   0.189
  421SOL    HW131757   3.637   5.010   0.203
  421SOL    HW231758   3.493   5.086   0.220
  422SOL     OW31759   5.400   1.278   0.189
  422SOL    HW131760   5.499   1.286   0.203
  422SOL    HW231761   5.355   1.362   0.220
  423SOL     OW31762   5.400   3.140   0.189
  423SOL    HW131763   5.499   3.148   0.203
  423SOL    HW231764   5.355   3.224   0.220
  424SOL     OW31765   5.400   5.002   0.189
  424SOL    HW131766   5.499   5.010   0.203
  424SOL    HW231767   5.355   5.086   0.220
  425SOL     OW31768   1.095   0.982  12.653
  425SOL    HW131769   1.072   1.035  12.571
  425SOL    HW231770   1.176   0.926  12.634
  426SOL     OW31771   1.095   2.844  12.653
  426SOL    HW131772   1.072   2.897  12.571
  426SOL    HW231773   1.176   2.788  12.634
  427SOL     OW31774   1.095   4.706  12.653
  427SOL    HW131775   1.072   4.759  12.571
  427SOL    HW231776   1.176   4.650  12.634
  428SOL     OW31777   2.957   0.982  12.653
  428SOL    HW131778   2.934   1.035  12.571
  428SOL    HW231779   3.038   0.926  12.634
  429SOL     OW31780   2.957   2.844  12.653
  429SOL    HW131781   2.934   2.897  12.571
  429SOL    HW231782   3.038   2.788  12.634
  430SOL     OW31783   2.957   4.706  12.653
  430SOL    HW131784   2.934   4.759  12.571
  430SOL    HW231785   3.038   4.650  12.634
  431SOL     OW31786   4.819   0.982  12.653
  431SOL    HW131787   4.796   1.035  12.571
  431SOL    HW231788   4.900   0.926  12.634
  432SOL     OW31789   4.819   2.844  12.653
  432SOL    HW131790   4.796   2.897  12.571
  432SOL    HW231791   4.900   2.788  12.634
  433SOL     OW31792   4.819   4.706  12.653
  433SOL    HW131793   4.796   4.759  12.571
  433SOL    HW231794   4.900   4.650  12.634
  434SOL     OW31795   0.697   1.010   0.197
  434SOL    HW131796   0.766   0.994   0.267
  434SOL    HW231797   0.624   1.067   0.235
  435SOL     OW31798   0.697   2.872   0.197
  435SOL    HW131799   0.766   2.856   0.267
  435SOL    HW231800   0.624   2.929   0.235
  436SOL     OW31801   0.697   4.734   0.197
  436SOL    HW131802   0.766   4.718   0.267
  436SOL    HW231803   0.624   4.791   0.235
  437SOL     OW31804   0.697   0.146   0.197
  437SOL    HW131805   0.766   0.130   0.267
  437SOL    HW231806   0.624   0.203   0.235
  438SOL     OW31807   2.559   1.010   0.197
  438SOL    HW131808   2.628   0.994   0.267
  438SOL    HW231809   2.486   1.067   0.235
  439SOL     OW31810   2.559   2.872   0.197
  439SOL    HW131811   2.628   2.856   0.267
  439SOL    HW231812   2.486   2.929   0.235
  440SOL     OW31813   2.559   4.734   0.197
  440SOL    HW131814   2.628   4.718   0.267
  440SOL    HW231815   2.486   4.791   0.235
  441SOL     OW31816   2.559   0.146   0.197
  441SOL    HW131817   2.628   0.130   0.267
  441SOL    HW231818   2.486   0.203   0.235
  442SOL     OW31819   4.421   1.010   0.197
  442SOL    HW131820   4.490   0.994   0.267
  442SOL    HW231821   4.348   1.067   0.235
  443SOL     OW31822   4.421   2.872   0.197
  443SOL    HW131823   4.490   2.856   0.267
  443SOL    HW231824   4.348   2.929   0.235
  444SOL     OW31825   4.421   4.734   0.197
  444SOL    HW131826   4.490   4.718   0.267
  444SOL    HW231827   4.348   4.791   0.235
  445SOL     OW31828   4.421   0.146   0.197
  445SOL    HW131829   4.490   0.130   0.267
  445SOL    HW231830   4.348   0.203   0.235
  446SOL     OW31831   6.283   1.010   0.197
  446SOL    HW131832   6.352   0.994   0.267
  446SOL    HW231833   6.210   1.067   0.235
  447SOL     OW31834   6.283   2.872   0.197
  447SOL    HW131835   6.352   2.856   0.267
  447SOL    HW231836   6.210   2.929   0.235
  448SOL     OW31837   6.283   4.734   0.197
  448SOL    HW131838   6.352   4.718   0.267
  448SOL    HW231839   6.210   4.791   0.235
  449SOL     OW31840   6.283   0.146   0.197
  449SOL    HW131841   6.352   0.130   0.267
  449SOL    HW231842   6.210   0.203   0.235
  450SOL     OW31843   1.644   1.375  12.647
  450SOL    HW131844   1.612   1.469  12.637
  450SOL    HW231845   1.568   1.312  12.635
  451SOL     OW31846   1.644   3.237  12.647
  451SOL    HW131847   1.612   3.331  12.637
  451SOL    HW231848   1.568   3.174  12.635
  452SOL     OW31849   1.644   5.099  12.647
  452SOL    HW131850   1.612   5.193  12.637
  452SOL    HW231851   1.568   5.036  12.635
  453SOL     OW31852   3.506   1.375  12.647
  453SOL    HW131853   3.474   1.469  12.637
  453SOL    HW231854   3.430   1.312  12.635
  454SOL     OW31855   3.506   3.237  12.647
  454SOL    HW131856   3.474   3.331  12.637
  454SOL    HW231857   3.430   3.174  12.635
  455SOL     OW31858   3.506   5.099  12.647
  455SOL    HW131859   3.474   5.193  12.637
  455SOL    HW231860   3.430   5.036  12.635
  456SOL     OW31861   5.368   1.375  12.647
  456SOL    HW131862   5.336   1.469  12.637
  456SOL    HW231863   5.292   1.312  12.635
  457SOL     OW31864   5.368   3.237  12.647
  457SOL    HW131865   5.336   3.331  12.637
  457SOL    HW231866   5.292   3.174  12.635
  458SOL     OW31867   5.368   5.099  12.647
  458SOL    HW131868   5.336   5.193  12.637
  458SOL    HW231869   5.292   5.036  12.635
  459SOL     OW31870   1.402   0.573  12.644
  459SOL    HW131871   1.348   0.552  12.725
  459SOL    HW231872   1.493   0.532  12.653
  460SOL     OW31873   1.402   2.435  12.644
  460SOL    HW131874   1.348   2.414  12.725
  460SOL    HW231875   1.493   2.394  12.653
  461SOL     OW31876   1.402   4.297  12.644
  461SOL    HW131877   1.348   4.276  12.725
  461SOL    HW231878   1.493   4.256  12.653
  462SOL     OW31879   1.402   6.159  12.644
  462SOL    HW131880   1.348   6.138  12.725
  462SOL    HW231881   1.493   6.118  12.653
  463SOL     OW31882   3.264   0.573  12.644
  463SOL    HW131883   3.210   0.552  12.725
  463SOL    HW231884   3.355   0.532  12.653
  464SOL     OW31885   3.264   2.435  12.644
  464SOL    HW131886   3.210   2.414  12.725
  464SOL    HW231887   3.355   2.394  12.653
  465SOL     OW31888   3.264   4.297  12.644
  465SOL    HW131889   3.210   4.276  12.725
  465SOL    HW231890   3.355   4.256  12.653
  466SOL     OW31891   3.264   6.159  12.644
  466SOL    HW131892   3.210   6.138  12.725
  466SOL    HW231893   3.355   6.118  12.653
  467SOL     OW31894   5.126   0.573  12.644
  467SOL    HW131895   5.072   0.552  12.725
  467SOL    HW231896   5.217   0.532  12.653
  468SOL     OW31897   5.126   2.435  12.644
  468SOL    HW131898   5.072   2.414  12.725
  468SOL    HW231899   5.217   2.394  12.653
  469SOL     OW31900   5.126   4.297  12.644
  469SOL    HW131901   5.072   4.276  12.725
  469SOL    HW231902   5.217   4.256  12.653
  470SOL     OW31903   5.126   6.159  12.644
  470SOL    HW131904   5.072   6.138  12.725
  470SOL    HW231905   5.217   6.118  12.653
  471SOL     OW31906   1.292   0.925   0.204
  471SOL    HW131907   1.352   0.844   0.206
  471SOL    HW231908   1.332   0.994   0.144
  472SOL     OW31909   1.292   2.787   0.204
  472SOL    HW131910   1.352   2.706   0.206
  472SOL    HW231911   1.332   2.856   0.144
  473SOL     OW31912   1.292   4.649   0.204
  473SOL    HW131913   1.352   4.568   0.206
  473SOL    HW231914   1.332   4.718   0.144
  474SOL     OW31915   1.292   0.061   0.204
  474SOL    HW131916   1.352   6.430   0.206
  474SOL    HW231917   1.332   0.130   0.144
  475SOL     OW31918   3.154   0.925   0.204
  475SOL    HW131919   3.214   0.844   0.206
  475SOL    HW231920   3.194   0.994   0.144
  476SOL     OW31921   3.154   2.787   0.204
  476SOL    HW131922   3.214   2.706   0.206
  476SOL    HW231923   3.194   2.856   0.144
  477SOL     OW31924   3.154   4.649   0.204
  477SOL    HW131925   3.214   4.568   0.206
  477SOL    HW231926   3.194   4.718   0.144
  478SOL     OW31927   3.154   0.061   0.204
  478SOL    HW131928   3.214   6.430   0.206
  478SOL    HW231929   3.194   0.130   0.144
  479SOL     OW31930   5.016   0.925   0.204
  479SOL    HW131931   5.076   0.844   0.206
  479SOL    HW231932   5.056   0.994   0.144
  480SOL     OW31933   5.016   2.787   0.204
  480SOL    HW131934   5.076   2.706   0.206
  480SOL    HW231935   5.056   2.856   0.144
  481SOL     OW31936   5.016   4.649   0.204
  481SOL    HW131937   5.076   4.568   0.206
  481SOL    HW231938   5.056   4.718   0.144
  482SOL     OW31939   5.016   0.061   0.204
  482SOL    HW131940   5.076   6.430   0.206
  482SOL    HW231941   5.056   0.130   0.144
  483SOL     OW31942   0.824   1.584   0.219
  483SOL    HW131943   0.856   1.594   0.125
  483SOL    HW231944   0.745   1.522   0.221
  484SOL     OW31945   0.824   3.446   0.219
  484SOL    HW131946   0.856   3.456   0.125
  484SOL    HW231947   0.745   3.384   0.221
  485SOL     OW31948   0.824   5.308   0.219
  485SOL    HW131949   0.856   5.318   0.125
  485SOL    HW231950   0.745   5.246   0.221
  486SOL     OW31951   2.686   1.584   0.219
  486SOL    HW131952   2.718   1.594   0.125
  486SOL    HW231953   2.607   1.522   0.221
  487SOL     OW31954   2.686   3.446   0.219
  487SOL    HW131955   2.718   3.456   0.125
  487SOL    HW231956   2.607   3.384   0.221
  488SOL     OW31957   2.686   5.308   0.219
  488SOL    HW131958   2.718   5.318   0.125
  488SOL    HW231959   2.607   5.246   0.221
  489SOL     OW31960   4.548   1.584   0.219
  489SOL    HW131961   4.580   1.594   0.125
  489SOL    HW231962   4.469   1.522   0.221
  490SOL     OW31963   4.548   3.446   0.219
  490SOL    HW131964   4.580   3.456   0.125
  490SOL    HW231965   4.469   3.384   0.221
  491SOL     OW31966   4.548   5.308   0.219
  491SOL    HW131967   4.580   5.318   0.125
  491SOL    HW231968   4.469   5.246   0.221
  492SOL     OW31969   6.410   1.584   0.219
  492SOL    HW131970   6.442   1.594   0.125
  492SOL    HW231971   6.331   1.522   0.221
  493SOL     OW31972   6.410   3.446   0.219
  493SOL    HW131973   6.442   3.456   0.125
  493SOL    HW231974   6.331   3.384   0.221
  494SOL     OW31975   6.410   5.308   0.219
  494SOL    HW131976   6.442   5.318   0.125
  494SOL    HW231977   6.331   5.246   0.221
  495SOL     OW31978   1.312   0.451   0.223
  495SOL    HW131979   1.253   0.531   0.227
  495SOL    HW231980   1.327   0.416   0.316
  496SOL     OW31981   1.312   2.313   0.223
  496SOL    HW131982   1.253   2.393   0.227
  496SOL    HW231983   1.327   2.278   0.316
  497SOL     OW31984   1.312   4.175   0.223
  497SOL    HW131985   1.253   4.255   0.227
  497SOL    HW231986   1.327   4.140   0.316
  498SOL     OW31987   1.312   6.037   0.223
  498SOL    HW131988   1.253   6.117   0.227
  498SOL    HW231989   1.327   6.002   0.316
  499SOL     OW31990   3.174   0.451   0.223
  499SOL    HW131991   3.115   0.531   0.227
  499SOL    HW231992   3.189   0.416   0.316
  500SOL     OW31993   3.174   2.313   0.223
  500SOL    HW131994   3.115   2.393   0.227
  500SOL    HW231995   3.189   2.278   0.316
  501SOL     OW31996   3.174   4.175   0.223
  501SOL    HW131997   3.115   4.255   0.227
  501SOL    HW231998   3.189   4.140   0.316
  502SOL     OW31999   3.174   6.037   0.223
  502SOL    HW132000   3.115   6.117   0.227
  502SOL    HW232001   3.189   6.002   0.316
  503SOL     OW32002   5.036   0.451   0.223
  503SOL    HW132003   4.977   0.531   0.227
  503SOL    HW232004   5.051   0.416   0.316
  504SOL     OW32005   5.036   2.313   0.223
  504SOL    HW132006   4.977   2.393   0.227
  504SOL    HW232007   5.051   2.278   0.316
  505SOL     OW32008   5.036   4.175   0.223
  505SOL    HW132009   4.977   4.255   0.227
  505SOL    HW232010   5.051   4.140   0.316
  506SOL     OW32011   5.036   6.037   0.223
  506SOL    HW132012   4.977   6.117   0.227
  506SOL    HW232013   5.051   6.002   0.316
  507SOL     OW32014   1.051   1.096   0.228
  507SOL    HW132015   0.981   1.049   0.282
  507SOL    HW232016   1.110   1.028   0.185
  508SOL     OW32017   1.051   2.958   0.228
  508SOL    HW132018   0.981   2.911   0.282
  508SOL    HW232019   1.110   2.890   0.185
  509SOL     OW32020   1.051   4.820   0.228
  509SOL    HW132021   0.981   4.773   0.282
  509SOL    HW232022   1.110   4.752   0.185
  510SOL     OW32023   2.913   1.096   0.228
  510SOL    HW132024   2.843   1.049   0.282
  510SOL    HW232025   2.972   1.028   0.185
  511SOL     OW32026   2.913   2.958   0.228
  511SOL    HW132027   2.843   2.911   0.282
  511SOL    HW232028   2.972   2.890   0.185
  512SOL     OW32029   2.913   4.820   0.228
  512SOL    HW132030   2.843   4.773   0.282
  512SOL    HW232031   2.972   4.752   0.185
  513SOL     OW32032   4.775   1.096   0.228
  513SOL    HW132033   4.705   1.049   0.282
  513SOL    HW232034   4.834   1.028   0.185
  514SOL     OW32035   4.775   2.958   0.228
  514SOL    HW132036   4.705   2.911   0.282
  514SOL    HW232037   4.834   2.890   0.185
  515SOL     OW32038   4.775   4.820   0.228
  515SOL    HW132039   4.705   4.773   0.282
  515SOL    HW232040   4.834   4.752   0.185
  516SOL     OW32041   1.567   1.509   0.235
  516SOL    HW132042   1.510   1.493   0.316
  516SOL    HW232043   1.508   1.519   0.155
  517SOL     OW32044   1.567   3.371   0.235
  517SOL    HW132045   1.510   3.355   0.316
  517SOL    HW232046   1.508   3.381   0.155
  518SOL     OW32047   1.567   5.233   0.235
  518SOL    HW132048   1.510   5.217   0.316
  518SOL    HW232049   1.508   5.243   0.155
  519SOL     OW32050   3.429   1.509   0.235
  519SOL    HW132051   3.372   1.493   0.316
  519SOL    HW232052   3.370   1.519   0.155
  520SOL     OW32053   3.429   3.371   0.235
  520SOL    HW132054   3.372   3.355   0.316
  520SOL    HW232055   3.370   3.381   0.155
  521SOL     OW32056   3.429   5.233   0.235
  521SOL    HW132057   3.372   5.217   0.316
  521SOL    HW232058   3.370   5.243   0.155
  522SOL     OW32059   5.291   1.509   0.235
  522SOL    HW132060   5.234   1.493   0.316
  522SOL    HW232061   5.232   1.519   0.155
  523SOL     OW32062   5.291   3.371   0.235
  523SOL    HW132063   5.234   3.355   0.316
  523SOL    HW232064   5.232   3.381   0.155
  524SOL     OW32065   5.291   5.233   0.235
  524SOL    HW132066   5.234   5.217   0.316
  524SOL    HW232067   5.232   5.243   0.155
  525SOL     OW32068   1.516   1.605  12.610
  525SOL    HW132069   1.424   1.642  12.617
  525SOL    HW232070   1.554   1.625  12.520
  526SOL     OW32071   1.516   3.467  12.610
  526SOL    HW132072   1.424   3.504  12.617
  526SOL    HW232073   1.554   3.487  12.520
  527SOL     OW32074   1.516   5.329  12.610
  527SOL    HW132075   1.424   5.366  12.617
  527SOL    HW232076   1.554   5.349  12.520
  528SOL     OW32077   3.378   1.605  12.610
  528SOL    HW132078   3.286   1.642  12.617
  528SOL    HW232079   3.416   1.625  12.520
  529SOL     OW32080   3.378   3.467  12.610
  529SOL    HW132081   3.286   3.504  12.617
  529SOL    HW232082   3.416   3.487  12.520
  530SOL     OW32083   3.378   5.329  12.610
  530SOL    HW132084   3.286   5.366  12.617
  530SOL    HW232085   3.416   5.349  12.520
  531SOL     OW32086   5.240   1.605  12.610
  531SOL    HW132087   5.148   1.642  12.617
  531SOL    HW232088   5.278   1.625  12.520
  532SOL     OW32089   5.240   3.467  12.610
  532SOL    HW132090   5.148   3.504  12.617
  532SOL    HW232091   5.278   3.487  12.520
  533SOL     OW32092   5.240   5.329  12.610
  533SOL    HW132093   5.148   5.366  12.617
  533SOL    HW232094   5.278   5.349  12.520
  534SOL     OW32095   1.315   0.836  12.608
  534SOL    HW132096   1.349   0.743  12.623
  534SOL    HW232097   1.333   0.863  12.513
  535SOL     OW32098   1.315   2.698  12.608
  535SOL    HW132099   1.349   2.605  12.623
  535SOL    HW232100   1.333   2.725  12.513
  536SOL     OW32101   1.315   4.560  12.608
  536SOL    HW132102   1.349   4.467  12.623
  536SOL    HW232103   1.333   4.587  12.513
  537SOL     OW32104   3.177   0.836  12.608
  537SOL    HW132105   3.211   0.743  12.623
  537SOL    HW232106   3.195   0.863  12.513
  538SOL     OW32107   3.177   2.698  12.608
  538SOL    HW132108   3.211   2.605  12.623
  538SOL    HW232109   3.195   2.725  12.513
  539SOL     OW32110   3.177   4.560  12.608
  539SOL    HW132111   3.211   4.467  12.623
  539SOL    HW232112   3.195   4.587  12.513
  540SOL     OW32113   5.039   0.836  12.608
  540SOL    HW132114   5.073   0.743  12.623
  540SOL    HW232115   5.057   0.863  12.513
  541SOL     OW32116   5.039   2.698  12.608
  541SOL    HW132117   5.073   2.605  12.623
  541SOL    HW232118   5.057   2.725  12.513
  542SOL     OW32119   5.039   4.560  12.608
  542SOL    HW132120   5.073   4.467  12.623
  542SOL    HW232121   5.057   4.587  12.513
  543SOL     OW32122   1.446   1.186  12.607
  543SOL    HW132123   1.478   1.110  12.664
  543SOL    HW232124   1.354   1.213  12.637
  544SOL     OW32125   1.446   3.048  12.607
  544SOL    HW132126   1.478   2.972  12.664
  544SOL    HW232127   1.354   3.075  12.637
  545SOL     OW32128   1.446   4.910  12.607
  545SOL    HW132129   1.478   4.834  12.664
  545SOL    HW232130   1.354   4.937  12.637
  546SOL     OW32131   3.308   1.186  12.607
  546SOL    HW132132   3.340   1.110  12.664
  546SOL    HW232133   3.216   1.213  12.637
  547SOL     OW32134   3.308   3.048  12.607
  547SOL    HW132135   3.340   2.972  12.664
  547SOL    HW232136   3.216   3.075  12.637
  548SOL     OW32137   3.308   4.910  12.607
  548SOL    HW132138   3.340   4.834  12.664
  548SOL    HW232139   3.216   4.937  12.637
  549SOL     OW32140   5.170   1.186  12.607
  549SOL    HW132141   5.202   1.110  12.664
  549SOL    HW232142   5.078   1.213  12.637
  550SOL     OW32143   5.170   3.048  12.607
  550SOL    HW132144   5.202   2.972  12.664
  550SOL    HW232145   5.078   3.075  12.637
  551SOL     OW32146   5.170   4.910  12.607
  551SOL    HW132147   5.202   4.834  12.664
  551SOL    HW232148   5.078   4.937  12.637
  552SOL     OW32149   0.087   0.343  12.599
  552SOL    HW132150   6.445   0.315  12.570
  552SOL    HW232151   0.118   0.420  12.543
  553SOL     OW32152   0.087   2.205  12.599
  553SOL    HW132153   6.445   2.177  12.570
  553SOL    HW232154   0.118   2.282  12.543
  554SOL     OW32155   0.087   4.067  12.599
  554SOL    HW132156   6.445   4.039  12.570
  554SOL    HW232157   0.118   4.144  12.543
  555SOL     OW32158   0.087   5.929  12.599
  555SOL    HW132159   6.445   5.901  12.570
  555SOL    HW232160   0.118   6.006  12.543
  556SOL     OW32161   1.949   0.343  12.599
  556SOL    HW132162   1.857   0.315  12.570
  556SOL    HW232163   1.980   0.420  12.543
  557SOL     OW32164   1.949   2.205  12.599
  557SOL    HW132165   1.857   2.177  12.570
  557SOL    HW232166   1.980   2.282  12.543
  558SOL     OW32167   1.949   4.067  12.599
  558SOL    HW132168   1.857   4.039  12.570
  558SOL    HW232169   1.980   4.144  12.543
  559SOL     OW32170   1.949   5.929  12.599
  559SOL    HW132171   1.857   5.901  12.570
  559SOL    HW232172   1.980   6.006  12.543
  560SOL     OW32173   3.811   0.343  12.599
  560SOL    HW132174   3.719   0.315  12.570
  560SOL    HW232175   3.842   0.420  12.543
  561SOL     OW32176   3.811   2.205  12.599
  561SOL    HW132177   3.719   2.177  12.570
  561SOL    HW232178   3.842   2.282  12.543
  562SOL     OW32179   3.811   4.067  12.599
  562SOL    HW132180   3.719   4.039  12.570
  562SOL    HW232181   3.842   4.144  12.543
  563SOL     OW32182   3.811   5.929  12.599
  563SOL    HW132183   3.719   5.901  12.570
  563SOL    HW232184   3.842   6.006  12.543
  564SOL     OW32185   5.673   0.343  12.599
  564SOL    HW132186   5.581   0.315  12.570
  564SOL    HW232187   5.704   0.420  12.543
  565SOL     OW32188   5.673   2.205  12.599
  565SOL    HW132189   5.581   2.177  12.570
  565SOL    HW232190   5.704   2.282  12.543
  566SOL     OW32191   5.673   4.067  12.599
  566SOL    HW132192   5.581   4.039  12.570
  566SOL    HW232193   5.704   4.144  12.543
  567SOL     OW32194   5.673   5.929  12.599
  567SOL    HW132195   5.581   5.901  12.570
  567SOL    HW232196   5.704   6.006  12.543
  568SOL     OW32197   1.206   1.610  12.597
  568SOL    HW132198   1.212   1.517  12.634
  568SOL    HW232199   1.147   1.610  12.517
  569SOL     OW32200   1.206   3.472  12.597
  569SOL    HW132201   1.212   3.379  12.634
  569SOL    HW232202   1.147   3.472  12.517
  570SOL     OW32203   1.206   5.334  12.597
  570SOL    HW132204   1.212   5.241  12.634
  570SOL    HW232205   1.147   5.334  12.517
  571SOL     OW32206   3.068   1.610  12.597
  571SOL    HW132207   3.074   1.517  12.634
  571SOL    HW232208   3.009   1.610  12.517
  572SOL     OW32209   3.068   3.472  12.597
  572SOL    HW132210   3.074   3.379  12.634
  572SOL    HW232211   3.009   3.472  12.517
  573SOL     OW32212   3.068   5.334  12.597
  573SOL    HW132213   3.074   5.241  12.634
  573SOL    HW232214   3.009   5.334  12.517
  574SOL     OW32215   4.930   1.610  12.597
  574SOL    HW132216   4.936   1.517  12.634
  574SOL    HW232217   4.871   1.610  12.517
  575SOL     OW32218   4.930   3.472  12.597
  575SOL    HW132219   4.936   3.379  12.634
  575SOL    HW232220   4.871   3.472  12.517
  576SOL     OW32221   4.930   5.334  12.597
  576SOL    HW132222   4.936   5.241  12.634
  576SOL    HW232223   4.871   5.334  12.517
  577SOL     OW32224   1.147   0.701   0.249
  577SOL    HW132225   1.204   0.779   0.224
  577SOL    HW232226   1.087   0.727   0.325
  578SOL     OW32227   1.147   2.563   0.249
  578SOL    HW132228   1.204   2.641   0.224
  578SOL    HW232229   1.087   2.589   0.325
  579SOL     OW32230   1.147   4.425   0.249
  579SOL    HW132231   1.204   4.503   0.224
  579SOL    HW232232   1.087   4.451   0.325
  580SOL     OW32233   3.009   0.701   0.249
  580SOL    HW132234   3.066   0.779   0.224
  580SOL    HW232235   2.949   0.727   0.325
  581SOL     OW32236   3.009   2.563   0.249
  581SOL    HW132237   3.066   2.641   0.224
  581SOL    HW232238   2.949   2.589   0.325
  582SOL     OW32239   3.009   4.425   0.249
  582SOL    HW132240   3.066   4.503   0.224
  582SOL    HW232241   2.949   4.451   0.325
  583SOL     OW32242   4.871   0.701   0.249
  583SOL    HW132243   4.928   0.779   0.224
  583SOL    HW232244   4.811   0.727   0.325
  584SOL     OW32245   4.871   2.563   0.249
  584SOL    HW132246   4.928   2.641   0.224
  584SOL    HW232247   4.811   2.589   0.325
  585SOL     OW32248   4.871   4.425   0.249
  585SOL    HW132249   4.928   4.503   0.224
  585SOL    HW232250   4.811   4.451   0.325
  586SOL     OW32251   0.275   0.324   0.252
  586SOL    HW132252   0.196   0.375   0.218
  586SOL    HW232253   0.266   0.309   0.350
  587SOL     OW32254   0.275   2.186   0.252
  587SOL    HW132255   0.196   2.237   0.218
  587SOL    HW232256   0.266   2.171   0.350
  588SOL     OW32257   0.275   4.048   0.252
  588SOL    HW132258   0.196   4.099   0.218
  588SOL    HW232259   0.266   4.033   0.350
  589SOL     OW32260   0.275   5.910   0.252
  589SOL    HW132261   0.196   5.961   0.218
  589SOL    HW232262   0.266   5.895   0.350
  590SOL     OW32263   2.137   0.324   0.252
  590SOL    HW132264   2.058   0.375   0.218
  590SOL    HW232265   2.128   0.309   0.350
  591SOL     OW32266   2.137   2.186   0.252
  591SOL    HW132267   2.058   2.237   0.218
  591SOL    HW232268   2.128   2.171   0.350
  592SOL     OW32269   2.137   4.048   0.252
  592SOL    HW132270   2.058   4.099   0.218
  592SOL    HW232271   2.128   4.033   0.350
  593SOL     OW32272   2.137   5.910   0.252
  593SOL    HW132273   2.058   5.961   0.218
  593SOL    HW232274   2.128   5.895   0.350
  594SOL     OW32275   3.999   0.324   0.252
  594SOL    HW132276   3.920   0.375   0.218
  594SOL    HW232277   3.990   0.309   0.350
  595SOL     OW32278   3.999   2.186   0.252
  595SOL    HW132279   3.920   2.237   0.218
  595SOL    HW232280   3.990   2.171   0.350
  596SOL     OW32281   3.999   4.048   0.252
  596SOL    HW132282   3.920   4.099   0.218
  596SOL    HW232283   3.990   4.033   0.350
  597SOL     OW32284   3.999   5.910   0.252
  597SOL    HW132285   3.920   5.961   0.218
  597SOL    HW232286   3.990   5.895   0.350
  598SOL     OW32287   5.861   0.324   0.252
  598SOL    HW132288   5.782   0.375   0.218
  598SOL    HW232289   5.852   0.309   0.350
  599SOL     OW32290   5.861   2.186   0.252
  599SOL    HW132291   5.782   2.237   0.218
  599SOL    HW232292   5.852   2.171   0.350
  600SOL     OW32293   5.861   4.048   0.252
  600SOL    HW132294   5.782   4.099   0.218
  600SOL    HW232295   5.852   4.033   0.350
  601SOL     OW32296   5.861   5.910   0.252
  601SOL    HW132297   5.782   5.961   0.218
  601SOL    HW232298   5.852   5.895   0.350
  602SOL     OW32299   0.625   1.363   0.258
  602SOL    HW132300   0.576   1.276   0.267
  602SOL    HW232301   0.602   1.406   0.171
  603SOL     OW32302   0.625   3.225   0.258
  603SOL    HW132303   0.576   3.138   0.267
  603SOL    HW232304   0.602   3.268   0.171
  604SOL     OW32305   0.625   5.087   0.258
  604SOL    HW132306   0.576   5.000   0.267
  604SOL    HW232307   0.602   5.130   0.171
  605SOL     OW32308   2.487   1.363   0.258
  605SOL    HW132309   2.438   1.276   0.267
  605SOL    HW232310   2.464   1.406   0.171
  606SOL     OW32311   2.487   3.225   0.258
  606SOL    HW132312   2.438   3.138   0.267
  606SOL    HW232313   2.464   3.268   0.171
  607SOL     OW32314   2.487   5.087   0.258
  607SOL    HW132315   2.438   5.000   0.267
  607SOL    HW232316   2.464   5.130   0.171
  608SOL     OW32317   4.349   1.363   0.258
  608SOL    HW132318   4.300   1.276   0.267
  608SOL    HW232319   4.326   1.406   0.171
  609SOL     OW32320   4.349   3.225   0.258
  609SOL    HW132321   4.300   3.138   0.267
  609SOL    HW232322   4.326   3.268   0.171
  610SOL     OW32323   4.349   5.087   0.258
  610SOL    HW132324   4.300   5.000   0.267
  610SOL    HW232325   4.326   5.130   0.171
  611SOL     OW32326   6.211   1.363   0.258
  611SOL    HW132327   6.162   1.276   0.267
  611SOL    HW232328   6.188   1.406   0.171
  612SOL     OW32329   6.211   3.225   0.258
  612SOL    HW132330   6.162   3.138   0.267
  612SOL    HW232331   6.188   3.268   0.171
  613SOL     OW32332   6.211   5.087   0.258
  613SOL    HW132333   6.162   5.000   0.267
  613SOL    HW232334   6.188   5.130   0.171
  614SOL     OW32335   1.470   0.733   0.260
  614SOL    HW132336   1.465   0.668   0.335
  614SOL    HW232337   1.550   0.792   0.273
  615SOL     OW32338   1.470   2.595   0.260
  615SOL    HW132339   1.465   2.530   0.335
  615SOL    HW232340   1.550   2.654   0.273
  616SOL     OW32341   1.470   4.457   0.260
  616SOL    HW132342   1.465   4.392   0.335
  616SOL    HW232343   1.550   4.516   0.273
  617SOL     OW32344   1.470   6.319   0.260
  617SOL    HW132345   1.465   6.254   0.335
  617SOL    HW232346   1.550   6.378   0.273
  618SOL     OW32347   3.332   0.733   0.260
  618SOL    HW132348   3.327   0.668   0.335
  618SOL    HW232349   3.412   0.792   0.273
  619SOL     OW32350   3.332   2.595   0.260
  619SOL    HW132351   3.327   2.530   0.335
  619SOL    HW232352   3.412   2.654   0.273
  620SOL     OW32353   3.332   4.457   0.260
  620SOL    HW132354   3.327   4.392   0.335
  620SOL    HW232355   3.412   4.516   0.273
  621SOL     OW32356   3.332   6.319   0.260
  621SOL    HW132357   3.327   6.254   0.335
  621SOL    HW232358   3.412   6.378   0.273
  622SOL     OW32359   5.194   0.733   0.260
  622SOL    HW132360   5.189   0.668   0.335
  622SOL    HW232361   5.274   0.792   0.273
  623SOL     OW32362   5.194   2.595   0.260
  623SOL    HW132363   5.189   2.530   0.335
  623SOL    HW232364   5.274   2.654   0.273
  624SOL     OW32365   5.194   4.457   0.260
  624SOL    HW132366   5.189   4.392   0.335
  624SOL    HW232367   5.274   4.516   0.273
  625SOL     OW32368   5.194   6.319   0.260
  625SOL    HW132369   5.189   6.254   0.335
  625SOL    HW232370   5.274   6.378   0.273
  626SOL     OW32371   1.044   0.547  12.582
  626SOL    HW132372   1.003   0.629  12.543
  626SOL    HW232373   1.108   0.573  12.655
  627SOL     OW32374   0.871   1.372  12.582
  627SOL    HW132375   0.825   1.387  12.670
  627SOL    HW232376   0.915   1.457  12.552
  628SOL     OW32377   1.044   2.409  12.582
  628SOL    HW132378   1.003   2.491  12.543
  628SOL    HW232379   1.108   2.435  12.655
  629SOL     OW32380   0.871   3.234  12.582
  629SOL    HW132381   0.825   3.249  12.670
  629SOL    HW232382   0.915   3.319  12.552
  630SOL     OW32383   1.044   4.271  12.582
  630SOL    HW132384   1.003   4.353  12.543
  630SOL    HW232385   1.108   4.297  12.655
  631SOL     OW32386   0.871   5.096  12.582
  631SOL    HW132387   0.825   5.111  12.670
  631SOL    HW232388   0.915   5.181  12.552
  632SOL     OW32389   1.044   6.133  12.582
  632SOL    HW132390   1.003   6.215  12.543
  632SOL    HW232391   1.108   6.159  12.655
  633SOL     OW32392   2.906   0.547  12.582
  633SOL    HW132393   2.865   0.629  12.543
  633SOL    HW232394   2.970   0.573  12.655
  634SOL     OW32395   2.733   1.372  12.582
  634SOL    HW132396   2.687   1.387  12.670
  634SOL    HW232397   2.777   1.457  12.552
  635SOL     OW32398   2.906   2.409  12.582
  635SOL    HW132399   2.865   2.491  12.543
  635SOL    HW232400   2.970   2.435  12.655
  636SOL     OW32401   2.733   3.234  12.582
  636SOL    HW132402   2.687   3.249  12.670
  636SOL    HW232403   2.777   3.319  12.552
  637SOL     OW32404   2.906   4.271  12.582
  637SOL    HW132405   2.865   4.353  12.543
  637SOL    HW232406   2.970   4.297  12.655
  638SOL     OW32407   2.733   5.096  12.582
  638SOL    HW132408   2.687   5.111  12.670
  638SOL    HW232409   2.777   5.181  12.552
  639SOL     OW32410   2.906   6.133  12.582
  639SOL    HW132411   2.865   6.215  12.543
  639SOL    HW232412   2.970   6.159  12.655
  640SOL     OW32413   4.768   0.547  12.582
  640SOL    HW132414   4.727   0.629  12.543
  640SOL    HW232415   4.832   0.573  12.655
  641SOL     OW32416   4.595   1.372  12.582
  641SOL    HW132417   4.549   1.387  12.670
  641SOL    HW232418   4.639   1.457  12.552
  642SOL     OW32419   4.768   2.409  12.582
  642SOL    HW132420   4.727   2.491  12.543
  642SOL    HW232421   4.832   2.435  12.655
  643SOL     OW32422   4.595   3.234  12.582
  643SOL    HW132423   4.549   3.249  12.670
  643SOL    HW232424   4.639   3.319  12.552
  644SOL     OW32425   4.768   4.271  12.582
  644SOL    HW132426   4.727   4.353  12.543
  644SOL    HW232427   4.832   4.297  12.655
  645SOL     OW32428   4.595   5.096  12.582
  645SOL    HW132429   4.549   5.111  12.670
  645SOL    HW232430   4.639   5.181  12.552
  646SOL     OW32431   4.768   6.133  12.582
  646SOL    HW132432   4.727   6.215  12.543
  646SOL    HW232433   4.832   6.159  12.655
  647SOL     OW32434   1.615   0.445   0.269
  647SOL    HW132435   1.541   0.491   0.219
  647SOL    HW232436   1.666   0.513   0.322
  648SOL     OW32437   1.615   2.307   0.269
  648SOL    HW132438   1.541   2.353   0.219
  648SOL    HW232439   1.666   2.375   0.322
  649SOL     OW32440   1.615   4.169   0.269
  649SOL    HW132441   1.541   4.215   0.219
  649SOL    HW232442   1.666   4.237   0.322
  650SOL     OW32443   1.615   6.031   0.269
  650SOL    HW132444   1.541   6.077   0.219
  650SOL    HW232445   1.666   6.099   0.322
  651SOL     OW32446   3.477   0.445   0.269
  651SOL    HW132447   3.403   0.491   0.219
  651SOL    HW232448   3.528   0.513   0.322
  652SOL     OW32449   3.477   2.307   0.269
  652SOL    HW132450   3.403   2.353   0.219
  652SOL    HW232451   3.528   2.375   0.322
  653SOL     OW32452   3.477   4.169   0.269
  653SOL    HW132453   3.403   4.215   0.219
  653SOL    HW232454   3.528   4.237   0.322
  654SOL     OW32455   3.477   6.031   0.269
  654SOL    HW132456   3.403   6.077   0.219
  654SOL    HW232457   3.528   6.099   0.322
  655SOL     OW32458   5.339   0.445   0.269
  655SOL    HW132459   5.265   0.491   0.219
  655SOL    HW232460   5.390   0.513   0.322
  656SOL     OW32461   5.339   2.307   0.269
  656SOL    HW132462   5.265   2.353   0.219
  656SOL    HW232463   5.390   2.375   0.322
  657SOL     OW32464   5.339   4.169   0.269
  657SOL    HW132465   5.265   4.215   0.219
  657SOL    HW232466   5.390   4.237   0.322
  658SOL     OW32467   5.339   6.031   0.269
  658SOL    HW132468   5.265   6.077   0.219
  658SOL    HW232469   5.390   6.099   0.322
  659SOL     OW32470   0.471   1.150   0.273
  659SOL    HW132471   0.400   1.123   0.338
  659SOL    HW232472   0.445   1.122   0.180
  660SOL     OW32473   0.471   3.012   0.273
  660SOL    HW132474   0.400   2.985   0.338
  660SOL    HW232475   0.445   2.984   0.180
  661SOL     OW32476   0.471   4.874   0.273
  661SOL    HW132477   0.400   4.847   0.338
  661SOL    HW232478   0.445   4.846   0.180
  662SOL     OW32479   2.333   1.150   0.273
  662SOL    HW132480   2.262   1.123   0.338
  662SOL    HW232481   2.307   1.122   0.180
  663SOL     OW32482   2.333   3.012   0.273
  663SOL    HW132483   2.262   2.985   0.338
  663SOL    HW232484   2.307   2.984   0.180
  664SOL     OW32485   2.333   4.874   0.273
  664SOL    HW132486   2.262   4.847   0.338
  664SOL    HW232487   2.307   4.846   0.180
  665SOL     OW32488   4.195   1.150   0.273
  665SOL    HW132489   4.124   1.123   0.338
  665SOL    HW232490   4.169   1.122   0.180
  666SOL     OW32491   4.195   3.012   0.273
  666SOL    HW132492   4.124   2.985   0.338
  666SOL    HW232493   4.169   2.984   0.180
  667SOL     OW32494   4.195   4.874   0.273
  667SOL    HW132495   4.124   4.847   0.338
  667SOL    HW232496   4.169   4.846   0.180
  668SOL     OW32497   6.057   1.150   0.273
  668SOL    HW132498   5.986   1.123   0.338
  668SOL    HW232499   6.031   1.122   0.180
  669SOL     OW32500   6.057   3.012   0.273
  669SOL    HW132501   5.986   2.985   0.338
  669SOL    HW232502   6.031   2.984   0.180
  670SOL     OW32503   6.057   4.874   0.273
  670SOL    HW132504   5.986   4.847   0.338
  670SOL    HW232505   6.031   4.846   0.180
  671SOL     OW32506   1.029   0.037   0.285
  671SOL    HW132507   0.957   0.042   0.216
  671SOL    HW232508   1.005   6.418   0.354
  672SOL     OW32509   1.029   1.899   0.285
  672SOL    HW132510   0.957   1.904   0.216
  672SOL    HW232511   1.005   1.830   0.354
  673SOL     OW32512   1.029   3.761   0.285
  673SOL    HW132513   0.957   3.766   0.216
  673SOL    HW232514   1.005   3.692   0.354
  674SOL     OW32515   1.029   5.623   0.285
  674SOL    HW132516   0.957   5.628   0.216
  674SOL    HW232517   1.005   5.554   0.354
  675SOL     OW32518   2.891   0.037   0.285
  675SOL    HW132519   2.819   0.042   0.216
  675SOL    HW232520   2.867   6.418   0.354
  676SOL     OW32521   2.891   1.899   0.285
  676SOL    HW132522   2.819   1.904   0.216
  676SOL    HW232523   2.867   1.830   0.354
  677SOL     OW32524   2.891   3.761   0.285
  677SOL    HW132525   2.819   3.766   0.216
  677SOL    HW232526   2.867   3.692   0.354
  678SOL     OW32527   2.891   5.623   0.285
  678SOL    HW132528   2.819   5.628   0.216
  678SOL    HW232529   2.867   5.554   0.354
  679SOL     OW32530   4.753   0.037   0.285
  679SOL    HW132531   4.681   0.042   0.216
  679SOL    HW232532   4.729   6.418   0.354
  680SOL     OW32533   4.753   1.899   0.285
  680SOL    HW132534   4.681   1.904   0.216
  680SOL    HW232535   4.729   1.830   0.354
  681SOL     OW32536   4.753   3.761   0.285
  681SOL    HW132537   4.681   3.766   0.216
  681SOL    HW232538   4.729   3.692   0.354
  682SOL     OW32539   4.753   5.623   0.285
  682SOL    HW132540   4.681   5.628   0.216
  682SOL    HW232541   4.729   5.554   0.354
  683SOL     OW32542   1.740   0.933  12.558
  683SOL    HW132543   1.694   0.926  12.469
  683SOL    HW232544   1.678   0.977  12.624
  684SOL     OW32545   1.740   2.795  12.558
  684SOL    HW132546   1.694   2.788  12.469
  684SOL    HW232547   1.678   2.839  12.624
  685SOL     OW32548   1.740   4.657  12.558
  685SOL    HW132549   1.694   4.650  12.469
  685SOL    HW232550   1.678   4.701  12.624
  686SOL     OW32551   1.740   0.069  12.558
  686SOL    HW132552   1.694   0.062  12.469
  686SOL    HW232553   1.678   0.113  12.624
  687SOL     OW32554   3.602   0.933  12.558
  687SOL    HW132555   3.556   0.926  12.469
  687SOL    HW232556   3.540   0.977  12.624
  688SOL     OW32557   3.602   2.795  12.558
  688SOL    HW132558   3.556   2.788  12.469
  688SOL    HW232559   3.540   2.839  12.624
  689SOL     OW32560   3.602   4.657  12.558
  689SOL    HW132561   3.556   4.650  12.469
  689SOL    HW232562   3.540   4.701  12.624
  690SOL     OW32563   3.602   0.069  12.558
  690SOL    HW132564   3.556   0.062  12.469
  690SOL    HW232565   3.540   0.113  12.624
  691SOL     OW32566   5.464   0.933  12.558
  691SOL    HW132567   5.418   0.926  12.469
  691SOL    HW232568   5.402   0.977  12.624
  692SOL     OW32569   5.464   2.795  12.558
  692SOL    HW132570   5.418   2.788  12.469
  692SOL    HW232571   5.402   2.839  12.624
  693SOL     OW32572   5.464   4.657  12.558
  693SOL    HW132573   5.418   4.650  12.469
  693SOL    HW232574   5.402   4.701  12.624
  694SOL     OW32575   5.464   0.069  12.558
  694SOL    HW132576   5.418   0.062  12.469
  694SOL    HW232577   5.402   0.113  12.624
  695SOL     OW32578   0.142   1.792  12.555
  695SOL    HW132579   0.101   1.718  12.608
  695SOL    HW232580   0.206   1.843  12.613
  696SOL     OW32581   0.142   3.654  12.555
  696SOL    HW132582   0.101   3.580  12.608
  696SOL    HW232583   0.206   3.705  12.613
  697SOL     OW32584   0.142   5.516  12.555
  697SOL    HW132585   0.101   5.442  12.608
  697SOL    HW232586   0.206   5.567  12.613
  698SOL     OW32587   2.004   1.792  12.555
  698SOL    HW132588   1.963   1.718  12.608
  698SOL    HW232589   2.068   1.843  12.613
  699SOL     OW32590   2.004   3.654  12.555
  699SOL    HW132591   1.963   3.580  12.608
  699SOL    HW232592   2.068   3.705  12.613
  700SOL     OW32593   2.004   5.516  12.555
  700SOL    HW132594   1.963   5.442  12.608
  700SOL    HW232595   2.068   5.567  12.613
  701SOL     OW32596   3.866   1.792  12.555
  701SOL    HW132597   3.825   1.718  12.608
  701SOL    HW232598   3.930   1.843  12.613
  702SOL     OW32599   3.866   3.654  12.555
  702SOL    HW132600   3.825   3.580  12.608
  702SOL    HW232601   3.930   3.705  12.613
  703SOL     OW32602   3.866   5.516  12.555
  703SOL    HW132603   3.825   5.442  12.608
  703SOL    HW232604   3.930   5.567  12.613
  704SOL     OW32605   5.728   1.792  12.555
  704SOL    HW132606   5.687   1.718  12.608
  704SOL    HW232607   5.792   1.843  12.613
  705SOL     OW32608   5.728   3.654  12.555
  705SOL    HW132609   5.687   3.580  12.608
  705SOL    HW232610   5.792   3.705  12.613
  706SOL     OW32611   5.728   5.516  12.555
  706SOL    HW132612   5.687   5.442  12.608
  706SOL    HW232613   5.792   5.567  12.613
  707SOL     OW32614   0.233   1.312  12.548
  707SOL    HW132615   0.168   1.239  12.527
  707SOL    HW232616   0.237   1.326  12.646
  708SOL     OW32617   0.233   3.174  12.548
  708SOL    HW132618   0.168   3.101  12.527
  708SOL    HW232619   0.237   3.188  12.646
  709SOL     OW32620   0.233   5.036  12.548
  709SOL    HW132621   0.168   4.963  12.527
  709SOL    HW232622   0.237   5.050  12.646
  710SOL     OW32623   2.095   1.312  12.548
  710SOL    HW132624   2.030   1.239  12.527
  710SOL    HW232625   2.099   1.326  12.646
  711SOL     OW32626   2.095   3.174  12.548
  711SOL    HW132627   2.030   3.101  12.527
  711SOL    HW232628   2.099   3.188  12.646
  712SOL     OW32629   2.095   5.036  12.548
  712SOL    HW132630   2.030   4.963  12.527
  712SOL    HW232631   2.099   5.050  12.646
  713SOL     OW32632   3.957   1.312  12.548
  713SOL    HW132633   3.892   1.239  12.527
  713SOL    HW232634   3.961   1.326  12.646
  714SOL     OW32635   3.957   3.174  12.548
  714SOL    HW132636   3.892   3.101  12.527
  714SOL    HW232637   3.961   3.188  12.646
  715SOL     OW32638   3.957   5.036  12.548
  715SOL    HW132639   3.892   4.963  12.527
  715SOL    HW232640   3.961   5.050  12.646
  716SOL     OW32641   5.819   1.312  12.548
  716SOL    HW132642   5.754   1.239  12.527
  716SOL    HW232643   5.823   1.326  12.646
  717SOL     OW32644   5.819   3.174  12.548
  717SOL    HW132645   5.754   3.101  12.527
  717SOL    HW232646   5.823   3.188  12.646
  718SOL     OW32647   5.819   5.036  12.548
  718SOL    HW132648   5.754   4.963  12.527
  718SOL    HW232649   5.823   5.050  12.646
  719SOL     OW32650   1.731   0.583  12.535
  719SOL    HW132651   1.705   0.672  12.499
  719SOL    HW232652   1.729   0.515  12.462
  720SOL     OW32653   1.731   2.445  12.535
  720SOL    HW132654   1.705   2.534  12.499
  720SOL    HW232655   1.729   2.377  12.462
  721SOL     OW32656   1.731   4.307  12.535
  721SOL    HW132657   1.705   4.396  12.499
  721SOL    HW232658   1.729   4.239  12.462
  722SOL     OW32659   1.731   6.169  12.535
  722SOL    HW132660   1.705   6.258  12.499
  722SOL    HW232661   1.729   6.101  12.462
  723SOL     OW32662   3.593   0.583  12.535
  723SOL    HW132663   3.567   0.672  12.499
  723SOL    HW232664   3.591   0.515  12.462
  724SOL     OW32665   3.593   2.445  12.535
  724SOL    HW132666   3.567   2.534  12.499
  724SOL    HW232667   3.591   2.377  12.462
  725SOL     OW32668   3.593   4.307  12.535
  725SOL    HW132669   3.567   4.396  12.499
  725SOL    HW232670   3.591   4.239  12.462
  726SOL     OW32671   3.593   6.169  12.535
  726SOL    HW132672   3.567   6.258  12.499
  726SOL    HW232673   3.591   6.101  12.462
  727SOL     OW32674   5.455   0.583  12.535
  727SOL    HW132675   5.429   0.672  12.499
  727SOL    HW232676   5.453   0.515  12.462
  728SOL     OW32677   5.455   2.445  12.535
  728SOL    HW132678   5.429   2.534  12.499
  728SOL    HW232679   5.453   2.377  12.462
  729SOL     OW32680   5.455   4.307  12.535
  729SOL    HW132681   5.429   4.396  12.499
  729SOL    HW232682   5.453   4.239  12.462
  730SOL     OW32683   5.455   6.169  12.535
  730SOL    HW132684   5.429   6.258  12.499
  730SOL    HW232685   5.453   6.101  12.462
  731SOL     OW32686   0.862   0.796  12.527
  731SOL    HW132687   0.858   0.872  12.592
  731SOL    HW232688   0.884   0.832  12.436
  732SOL     OW32689   0.862   2.658  12.527
  732SOL    HW132690   0.858   2.734  12.592
  732SOL    HW232691   0.884   2.694  12.436
  733SOL     OW32692   0.862   4.520  12.527
  733SOL    HW132693   0.858   4.596  12.592
  733SOL    HW232694   0.884   4.556  12.436
  734SOL     OW32695   0.862   6.382  12.527
  734SOL    HW132696   0.858   0.008  12.592
  734SOL    HW232697   0.884   6.418  12.436
  735SOL     OW32698   2.724   0.796  12.527
  735SOL    HW132699   2.720   0.872  12.592
  735SOL    HW232700   2.746   0.832  12.436
  736SOL     OW32701   2.724   2.658  12.527
  736SOL    HW132702   2.720   2.734  12.592
  736SOL    HW232703   2.746   2.694  12.436
  737SOL     OW32704   2.724   4.520  12.527
  737SOL    HW132705   2.720   4.596  12.592
  737SOL    HW232706   2.746   4.556  12.436
  738SOL     OW32707   2.724   6.382  12.527
  738SOL    HW132708   2.720   0.008  12.592
  738SOL    HW232709   2.746   6.418  12.436
  739SOL     OW32710   4.586   0.796  12.527
  739SOL    HW132711   4.582   0.872  12.592
  739SOL    HW232712   4.608   0.832  12.436
  740SOL     OW32713   4.586   2.658  12.527
  740SOL    HW132714   4.582   2.734  12.592
  740SOL    HW232715   4.608   2.694  12.436
  741SOL     OW32716   4.586   4.520  12.527
  741SOL    HW132717   4.582   4.596  12.592
  741SOL    HW232718   4.608   4.556  12.436
  742SOL     OW32719   4.586   6.382  12.527
  742SOL    HW132720   4.582   0.008  12.592
  742SOL    HW232721   4.608   6.418  12.436
  743SOL     OW32722   6.448   0.796  12.527
  743SOL    HW132723   6.444   0.872  12.592
  743SOL    HW232724   0.020   0.832  12.436
  744SOL     OW32725   6.448   2.658  12.527
  744SOL    HW132726   6.444   2.734  12.592
  744SOL    HW232727   0.020   2.694  12.436
  745SOL     OW32728   6.448   4.520  12.527
  745SOL    HW132729   6.444   4.596  12.592
  745SOL    HW232730   0.020   4.556  12.436
  746SOL     OW32731   0.088   0.809   0.321
  746SOL    HW132732   0.187   0.797   0.330
  746SOL    HW232733   0.064   0.904   0.342
  747SOL     OW32734   0.088   2.671   0.321
  747SOL    HW132735   0.187   2.659   0.330
  747SOL    HW232736   0.064   2.766   0.342
  748SOL     OW32737   0.088   4.533   0.321
  748SOL    HW132738   0.187   4.521   0.330
  748SOL    HW232739   0.064   4.628   0.342
  749SOL     OW32740   0.088   6.395   0.321
  749SOL    HW132741   0.187   6.383   0.330
  749SOL    HW232742   0.064   0.040   0.342
  750SOL     OW32743   1.950   0.809   0.321
  750SOL    HW132744   2.049   0.797   0.330
  750SOL    HW232745   1.926   0.904   0.342
  751SOL     OW32746   1.950   2.671   0.321
  751SOL    HW132747   2.049   2.659   0.330
  751SOL    HW232748   1.926   2.766   0.342
  752SOL     OW32749   1.950   4.533   0.321
  752SOL    HW132750   2.049   4.521   0.330
  752SOL    HW232751   1.926   4.628   0.342
  753SOL     OW32752   3.812   0.809   0.321
  753SOL    HW132753   3.911   0.797   0.330
  753SOL    HW232754   3.788   0.904   0.342
  754SOL     OW32755   3.812   2.671   0.321
  754SOL    HW132756   3.911   2.659   0.330
  754SOL    HW232757   3.788   2.766   0.342
  755SOL     OW32758   3.812   4.533   0.321
  755SOL    HW132759   3.911   4.521   0.330
  755SOL    HW232760   3.788   4.628   0.342
  756SOL     OW32761   5.674   0.809   0.321
  756SOL    HW132762   5.773   0.797   0.330
  756SOL    HW232763   5.650   0.904   0.342
  757SOL     OW32764   5.674   2.671   0.321
  757SOL    HW132765   5.773   2.659   0.330
  757SOL    HW232766   5.650   2.766   0.342
  758SOL     OW32767   5.674   4.533   0.321
  758SOL    HW132768   5.773   4.521   0.330
  758SOL    HW232769   5.650   4.628   0.342
  759SOL     OW32770   1.239   1.568   0.325
  759SOL    HW132771   1.260   1.642   0.260
  759SOL    HW232772   1.307   1.568   0.398
  760SOL     OW32773   1.239   3.430   0.325
  760SOL    HW132774   1.260   3.504   0.260
  760SOL    HW232775   1.307   3.430   0.398
  761SOL     OW32776   1.239   5.292   0.325
  761SOL    HW132777   1.260   5.366   0.260
  761SOL    HW232778   1.307   5.292   0.398
  762SOL     OW32779   3.101   1.568   0.325
  762SOL    HW132780   3.122   1.642   0.260
  762SOL    HW232781   3.169   1.568   0.398
  763SOL     OW32782   3.101   3.430   0.325
  763SOL    HW132783   3.122   3.504   0.260
  763SOL    HW232784   3.169   3.430   0.398
  764SOL     OW32785   3.101   5.292   0.325
  764SOL    HW132786   3.122   5.366   0.260
  764SOL    HW232787   3.169   5.292   0.398
  765SOL     OW32788   4.963   1.568   0.325
  765SOL    HW132789   4.984   1.642   0.260
  765SOL    HW232790   5.031   1.568   0.398
  766SOL     OW32791   4.963   3.430   0.325
  766SOL    HW132792   4.984   3.504   0.260
  766SOL    HW232793   5.031   3.430   0.398
  767SOL     OW32794   4.963   5.292   0.325
  767SOL    HW132795   4.984   5.366   0.260
  767SOL    HW232796   5.031   5.292   0.398
  768SOL     OW32797   0.362   0.896  12.508
  768SOL    HW132798   0.438   0.940  12.556
  768SOL    HW232799   0.397   0.849  12.426
  769SOL     OW32800   0.362   2.758  12.508
  769SOL    HW132801   0.438   2.802  12.556
  769SOL    HW232802   0.397   2.711  12.426
  770SOL     OW32803   0.362   4.620  12.508
  770SOL    HW132804   0.438   4.664  12.556
  770SOL    HW232805   0.397   4.573  12.426
  771SOL     OW32806   2.224   0.896  12.508
  771SOL    HW132807   2.300   0.940  12.556
  771SOL    HW232808   2.259   0.849  12.426
  772SOL     OW32809   2.224   2.758  12.508
  772SOL    HW132810   2.300   2.802  12.556
  772SOL    HW232811   2.259   2.711  12.426
  773SOL     OW32812   2.224   4.620  12.508
  773SOL    HW132813   2.300   4.664  12.556
  773SOL    HW232814   2.259   4.573  12.426
  774SOL     OW32815   4.086   0.896  12.508
  774SOL    HW132816   4.162   0.940  12.556
  774SOL    HW232817   4.121   0.849  12.426
  775SOL     OW32818   4.086   2.758  12.508
  775SOL    HW132819   4.162   2.802  12.556
  775SOL    HW232820   4.121   2.711  12.426
  776SOL     OW32821   4.086   4.620  12.508
  776SOL    HW132822   4.162   4.664  12.556
  776SOL    HW232823   4.121   4.573  12.426
  777SOL     OW32824   5.948   0.896  12.508
  777SOL    HW132825   6.024   0.940  12.556
  777SOL    HW232826   5.983   0.849  12.426
  778SOL     OW32827   5.948   2.758  12.508
  778SOL    HW132828   6.024   2.802  12.556
  778SOL    HW232829   5.983   2.711  12.426
  779SOL     OW32830   5.948   4.620  12.508
  779SOL    HW132831   6.024   4.664  12.556
  779SOL    HW232832   5.983   4.573  12.426
  780SOL     OW32833   0.698   1.159  12.507
  780SOL    HW132834   0.758   1.238  12.521
  780SOL    HW232835   0.612   1.190  12.466
  781SOL     OW32836   0.698   3.021  12.507
  781SOL    HW132837   0.758   3.100  12.521
  781SOL    HW232838   0.612   3.052  12.466
  782SOL     OW32839   0.698   4.883  12.507
  782SOL    HW132840   0.758   4.962  12.521
  782SOL    HW232841   0.612   4.914  12.466
  783SOL     OW32842   2.560   1.159  12.507
  783SOL    HW132843   2.620   1.238  12.521
  783SOL    HW232844   2.474   1.190  12.466
  784SOL     OW32845   2.560   3.021  12.507
  784SOL    HW132846   2.620   3.100  12.521
  784SOL    HW232847   2.474   3.052  12.466
  785SOL     OW32848   2.560   4.883  12.507
  785SOL    HW132849   2.620   4.962  12.521
  785SOL    HW232850   2.474   4.914  12.466
  786SOL     OW32851   4.422   1.159  12.507
  786SOL    HW132852   4.482   1.238  12.521
  786SOL    HW232853   4.336   1.190  12.466
  787SOL     OW32854   4.422   3.021  12.507
  787SOL    HW132855   4.482   3.100  12.521
  787SOL    HW232856   4.336   3.052  12.466
  788SOL     OW32857   4.422   4.883  12.507
  788SOL    HW132858   4.482   4.962  12.521
  788SOL    HW232859   4.336   4.914  12.466
  789SOL     OW32860   6.284   1.159  12.507
  789SOL    HW132861   6.344   1.238  12.521
  789SOL    HW232862   6.198   1.190  12.466
  790SOL     OW32863   6.284   3.021  12.507
  790SOL    HW132864   6.344   3.100  12.521
  790SOL    HW232865   6.198   3.052  12.466
  791SOL     OW32866   6.284   4.883  12.507
  791SOL    HW132867   6.344   4.962  12.521
  791SOL    HW232868   6.198   4.914  12.466
  792SOL     OW32869   0.329   0.249  12.505
  792SOL    HW132870   0.400   0.320  12.511
  792SOL    HW232871   0.241   0.288  12.533
  793SOL     OW32872   0.329   2.111  12.505
  793SOL    HW132873   0.400   2.182  12.511
  793SOL    HW232874   0.241   2.150  12.533
  794SOL     OW32875   0.329   3.973  12.505
  794SOL    HW132876   0.400   4.044  12.511
  794SOL    HW232877   0.241   4.012  12.533
  795SOL     OW32878   0.329   5.835  12.505
  795SOL    HW132879   0.400   5.906  12.511
  795SOL    HW232880   0.241   5.874  12.533
  796SOL     OW32881   2.191   0.249  12.505
  796SOL    HW132882   2.262   0.320  12.511
  796SOL    HW232883   2.103   0.288  12.533
  797SOL     OW32884   2.191   2.111  12.505
  797SOL    HW132885   2.262   2.182  12.511
  797SOL    HW232886   2.103   2.150  12.533
  798SOL     OW32887   2.191   3.973  12.505
  798SOL    HW132888   2.262   4.044  12.511
  798SOL    HW232889   2.103   4.012  12.533
  799SOL     OW32890   2.191   5.835  12.505
  799SOL    HW132891   2.262   5.906  12.511
  799SOL    HW232892   2.103   5.874  12.533
  800SOL     OW32893   4.053   0.249  12.505
  800SOL    HW132894   4.124   0.320  12.511
  800SOL    HW232895   3.965   0.288  12.533
  801SOL     OW32896   4.053   2.111  12.505
  801SOL    HW132897   4.124   2.182  12.511
  801SOL    HW232898   3.965   2.150  12.533
  802SOL     OW32899   4.053   3.973  12.505
  802SOL    HW132900   4.124   4.044  12.511
  802SOL    HW232901   3.965   4.012  12.533
  803SOL     OW32902   4.053   5.835  12.505
  803SOL    HW132903   4.124   5.906  12.511
  803SOL    HW232904   3.965   5.874  12.533
  804SOL     OW32905   5.915   0.249  12.505
  804SOL    HW132906   5.986   0.320  12.511
  804SOL    HW232907   5.827   0.288  12.533
  805SOL     OW32908   5.915   2.111  12.505
  805SOL    HW132909   5.986   2.182  12.511
  805SOL    HW232910   5.827   2.150  12.533
  806SOL     OW32911   5.915   3.973  12.505
  806SOL    HW132912   5.986   4.044  12.511
  806SOL    HW232913   5.827   4.012  12.533
  807SOL     OW32914   5.915   5.835  12.505
  807SOL    HW132915   5.986   5.906  12.511
  807SOL    HW232916   5.827   5.874  12.533
  808SOL     OW32917   1.025   0.103  12.474
  808SOL    HW132918   1.031   0.188  12.422
  808SOL    HW232919   1.057   0.027  12.417
  809SOL     OW32920   1.025   1.965  12.474
  809SOL    HW132921   1.031   2.050  12.422
  809SOL    HW232922   1.057   1.889  12.417
  810SOL     OW32923   1.025   3.827  12.474
  810SOL    HW132924   1.031   3.912  12.422
  810SOL    HW232925   1.057   3.751  12.417
  811SOL     OW32926   1.025   5.689  12.474
  811SOL    HW132927   1.031   5.774  12.422
  811SOL    HW232928   1.057   5.613  12.417
  812SOL     OW32929   2.887   0.103  12.474
  812SOL    HW132930   2.893   0.188  12.422
  812SOL    HW232931   2.919   0.027  12.417
  813SOL     OW32932   2.887   1.965  12.474
  813SOL    HW132933   2.893   2.050  12.422
  813SOL    HW232934   2.919   1.889  12.417
  814SOL     OW32935   2.887   3.827  12.474
  814SOL    HW132936   2.893   3.912  12.422
  814SOL    HW232937   2.919   3.751  12.417
  815SOL     OW32938   2.887   5.689  12.474
  815SOL    HW132939   2.893   5.774  12.422
  815SOL    HW232940   2.919   5.613  12.417
  816SOL     OW32941   4.749   0.103  12.474
  816SOL    HW132942   4.755   0.188  12.422
  816SOL    HW232943   4.781   0.027  12.417
  817SOL     OW32944   4.749   1.965  12.474
  817SOL    HW132945   4.755   2.050  12.422
  817SOL    HW232946   4.781   1.889  12.417
  818SOL     OW32947   4.749   3.827  12.474
  818SOL    HW132948   4.755   3.912  12.422
  818SOL    HW232949   4.781   3.751  12.417
  819SOL     OW32950   4.749   5.689  12.474
  819SOL    HW132951   4.755   5.774  12.422
  819SOL    HW232952   4.781   5.613  12.417
  820SOL     OW32953   1.080   1.331   0.381
  820SOL    HW132954   1.087   1.247   0.326
  820SOL    HW232955   1.142   1.400   0.345
  821SOL     OW32956   1.080   3.193   0.381
  821SOL    HW132957   1.087   3.109   0.326
  821SOL    HW232958   1.142   3.262   0.345
  822SOL     OW32959   1.080   5.055   0.381
  822SOL    HW132960   1.087   4.971   0.326
  822SOL    HW232961   1.142   5.124   0.345
  823SOL     OW32962   2.942   1.331   0.381
  823SOL    HW132963   2.949   1.247   0.326
  823SOL    HW232964   3.004   1.400   0.345
  824SOL     OW32965   2.942   3.193   0.381
  824SOL    HW132966   2.949   3.109   0.326
  824SOL    HW232967   3.004   3.262   0.345
  825SOL     OW32968   2.942   5.055   0.381
  825SOL    HW132969   2.949   4.971   0.326
  825SOL    HW232970   3.004   5.124   0.345
  826SOL     OW32971   4.804   1.331   0.381
  826SOL    HW132972   4.811   1.247   0.326
  826SOL    HW232973   4.866   1.400   0.345
  827SOL     OW32974   4.804   3.193   0.381
  827SOL    HW132975   4.811   3.109   0.326
  827SOL    HW232976   4.866   3.262   0.345
  828SOL     OW32977   4.804   5.055   0.381
  828SOL    HW132978   4.811   4.971   0.326
  828SOL    HW232979   4.866   5.124   0.345
  829SOL     OW32980   0.216   1.331   0.381
  829SOL    HW132981   0.223   1.247   0.326
  829SOL    HW232982   0.278   1.400   0.345
  830SOL     OW32983   0.216   3.193   0.381
  830SOL    HW132984   0.223   3.109   0.326
  830SOL    HW232985   0.278   3.262   0.345
  831SOL     OW32986   0.216   5.055   0.381
  831SOL    HW132987   0.223   4.971   0.326
  831SOL    HW232988   0.278   5.124   0.345
  832SOL     OW32989   1.873   1.567   0.383
  832SOL    HW132990   1.802   1.555   0.313
  832SOL    HW232991   1.874   1.488   0.443
  833SOL     OW32992   1.873   3.429   0.383
  833SOL    HW132993   1.802   3.417   0.313
  833SOL    HW232994   1.874   3.350   0.443
  834SOL     OW32995   1.873   5.291   0.383
  834SOL    HW132996   1.802   5.279   0.313
  834SOL    HW232997   1.874   5.212   0.443
  835SOL     OW32998   3.735   1.567   0.383
  835SOL    HW132999   3.664   1.555   0.313
  835SOL    HW233000   3.736   1.488   0.443
  836SOL     OW33001   3.735   3.429   0.383
  836SOL    HW133002   3.664   3.417   0.313
  836SOL    HW233003   3.736   3.350   0.443
  837SOL     OW33004   3.735   5.291   0.383
  837SOL    HW133005   3.664   5.279   0.313
  837SOL    HW233006   3.736   5.212   0.443
  838SOL     OW33007   5.597   1.567   0.383
  838SOL    HW133008   5.526   1.555   0.313
  838SOL    HW233009   5.598   1.488   0.443
  839SOL     OW33010   5.597   3.429   0.383
  839SOL    HW133011   5.526   3.417   0.313
  839SOL    HW233012   5.598   3.350   0.443
  840SOL     OW33013   5.597   5.291   0.383
  840SOL    HW133014   5.526   5.279   0.313
  840SOL    HW233015   5.598   5.212   0.443
  841SOL     OW33016   0.363   1.799   0.385
  841SOL    HW133017   0.413   1.713   0.391
  841SOL    HW233018   0.428   1.876   0.382
  842SOL     OW33019   0.363   3.661   0.385
  842SOL    HW133020   0.413   3.575   0.391
  842SOL    HW233021   0.428   3.738   0.382
  843SOL     OW33022   0.363   5.523   0.385
  843SOL    HW133023   0.413   5.437   0.391
  843SOL    HW233024   0.428   5.600   0.382
  844SOL     OW33025   2.225   1.799   0.385
  844SOL    HW133026   2.275   1.713   0.391
  844SOL    HW233027   2.290   1.876   0.382
  845SOL     OW33028   2.225   3.661   0.385
  845SOL    HW133029   2.275   3.575   0.391
  845SOL    HW233030   2.290   3.738   0.382
  846SOL     OW33031   2.225   5.523   0.385
  846SOL    HW133032   2.275   5.437   0.391
  846SOL    HW233033   2.290   5.600   0.382
  847SOL     OW33034   4.087   1.799   0.385
  847SOL    HW133035   4.137   1.713   0.391
  847SOL    HW233036   4.152   1.876   0.382
  848SOL     OW33037   4.087   3.661   0.385
  848SOL    HW133038   4.137   3.575   0.391
  848SOL    HW233039   4.152   3.738   0.382
  849SOL     OW33040   4.087   5.523   0.385
  849SOL    HW133041   4.137   5.437   0.391
  849SOL    HW233042   4.152   5.600   0.382
  850SOL     OW33043   5.949   1.799   0.385
  850SOL    HW133044   5.999   1.713   0.391
  850SOL    HW233045   6.014   1.876   0.382
  851SOL     OW33046   5.949   3.661   0.385
  851SOL    HW133047   5.999   3.575   0.391
  851SOL    HW233048   6.014   3.738   0.382
  852SOL     OW33049   5.949   5.523   0.385
  852SOL    HW133050   5.999   5.437   0.391
  852SOL    HW233051   6.014   5.600   0.382
  853SOL     OW33052   0.793   0.262  12.453
  853SOL    HW133053   0.860   0.201  12.496
  853SOL    HW233054   0.720   0.281  12.518
  854SOL     OW33055   0.793   2.124  12.453
  854SOL    HW133056   0.860   2.063  12.496
  854SOL    HW233057   0.720   2.143  12.518
  855SOL     OW33058   0.793   3.986  12.453
  855SOL    HW133059   0.860   3.925  12.496
  855SOL    HW233060   0.720   4.005  12.518
  856SOL     OW33061   0.793   5.848  12.453
  856SOL    HW133062   0.860   5.787  12.496
  856SOL    HW233063   0.720   5.867  12.518
  857SOL     OW33064   2.655   0.262  12.453
  857SOL    HW133065   2.722   0.201  12.496
  857SOL    HW233066   2.582   0.281  12.518
  858SOL     OW33067   2.655   2.124  12.453
  858SOL    HW133068   2.722   2.063  12.496
  858SOL    HW233069   2.582   2.143  12.518
  859SOL     OW33070   2.655   3.986  12.453
  859SOL    HW133071   2.722   3.925  12.496
  859SOL    HW233072   2.582   4.005  12.518
  860SOL     OW33073   2.655   5.848  12.453
  860SOL    HW133074   2.722   5.787  12.496
  860SOL    HW233075   2.582   5.867  12.518
  861SOL     OW33076   4.517   0.262  12.453
  861SOL    HW133077   4.584   0.201  12.496
  861SOL    HW233078   4.444   0.281  12.518
  862SOL     OW33079   4.517   2.124  12.453
  862SOL    HW133080   4.584   2.063  12.496
  862SOL    HW233081   4.444   2.143  12.518
  863SOL     OW33082   4.517   3.986  12.453
  863SOL    HW133083   4.584   3.925  12.496
  863SOL    HW233084   4.444   4.005  12.518
  864SOL     OW33085   4.517   5.848  12.453
  864SOL    HW133086   4.584   5.787  12.496
  864SOL    HW233087   4.444   5.867  12.518
  865SOL     OW33088   0.871   0.954   0.393
  865SOL    HW133089   0.925   0.885   0.441
  865SOL    HW233090   0.839   1.023   0.459
  866SOL     OW33091   0.871   2.816   0.393
  866SOL    HW133092   0.925   2.747   0.441
  866SOL    HW233093   0.839   2.885   0.459
  867SOL     OW33094   0.871   4.678   0.393
  867SOL    HW133095   0.925   4.609   0.441
  867SOL    HW233096   0.839   4.747   0.459
  868SOL     OW33097   2.733   0.954   0.393
  868SOL    HW133098   2.787   0.885   0.441
  868SOL    HW233099   2.701   1.023   0.459
  869SOL     OW33100   2.733   2.816   0.393
  869SOL    HW133101   2.787   2.747   0.441
  869SOL    HW233102   2.701   2.885   0.459
  870SOL     OW33103   2.733   4.678   0.393
  870SOL    HW133104   2.787   4.609   0.441
  870SOL    HW233105   2.701   4.747   0.459
  871SOL     OW33106   4.595   0.954   0.393
  871SOL    HW133107   4.649   0.885   0.441
  871SOL    HW233108   4.563   1.023   0.459
  872SOL     OW33109   4.595   2.816   0.393
  872SOL    HW133110   4.649   2.747   0.441
  872SOL    HW233111   4.563   2.885   0.459
  873SOL     OW33112   4.595   4.678   0.393
  873SOL    HW133113   4.649   4.609   0.441
  873SOL    HW233114   4.563   4.747   0.459
  874SOL     OW33115   0.578   0.535   0.397
  874SOL    HW133116   0.590   0.601   0.323
  874SOL    HW233117   0.624   0.569   0.480
  875SOL     OW33118   0.578   2.397   0.397
  875SOL    HW133119   0.590   2.463   0.323
  875SOL    HW233120   0.624   2.431   0.480
  876SOL     OW33121   0.578   4.259   0.397
  876SOL    HW133122   0.590   4.325   0.323
  876SOL    HW233123   0.624   4.293   0.480
  877SOL     OW33124   0.578   6.121   0.397
  877SOL    HW133125   0.590   6.187   0.323
  877SOL    HW233126   0.624   6.155   0.480
  878SOL     OW33127   2.440   0.535   0.397
  878SOL    HW133128   2.452   0.601   0.323
  878SOL    HW233129   2.486   0.569   0.480
  879SOL     OW33130   2.440   2.397   0.397
  879SOL    HW133131   2.452   2.463   0.323
  879SOL    HW233132   2.486   2.431   0.480
  880SOL     OW33133   2.440   4.259   0.397
  880SOL    HW133134   2.452   4.325   0.323
  880SOL    HW233135   2.486   4.293   0.480
  881SOL     OW33136   2.440   6.121   0.397
  881SOL    HW133137   2.452   6.187   0.323
  881SOL    HW233138   2.486   6.155   0.480
  882SOL     OW33139   4.302   0.535   0.397
  882SOL    HW133140   4.314   0.601   0.323
  882SOL    HW233141   4.348   0.569   0.480
  883SOL     OW33142   4.302   2.397   0.397
  883SOL    HW133143   4.314   2.463   0.323
  883SOL    HW233144   4.348   2.431   0.480
  884SOL     OW33145   4.302   4.259   0.397
  884SOL    HW133146   4.314   4.325   0.323
  884SOL    HW233147   4.348   4.293   0.480
  885SOL     OW33148   4.302   6.121   0.397
  885SOL    HW133149   4.314   6.187   0.323
  885SOL    HW233150   4.348   6.155   0.480
  886SOL     OW33151   6.164   0.535   0.397
  886SOL    HW133152   6.176   0.601   0.323
  886SOL    HW233153   6.210   0.569   0.480
  887SOL     OW33154   6.164   2.397   0.397
  887SOL    HW133155   6.176   2.463   0.323
  887SOL    HW233156   6.210   2.431   0.480
  888SOL     OW33157   6.164   4.259   0.397
  888SOL    HW133158   6.176   4.325   0.323
  888SOL    HW233159   6.210   4.293   0.480
  889SOL     OW33160   6.164   6.121   0.397
  889SOL    HW133161   6.176   6.187   0.323
  889SOL    HW233162   6.210   6.155   0.480
  890SOL     OW33163   0.264   1.562  12.448
  890SOL    HW133164   0.234   1.619  12.524
  890SOL    HW233165   0.257   1.465  12.474
  891SOL     OW33166   0.264   3.424  12.448
  891SOL    HW133167   0.234   3.481  12.524
  891SOL    HW233168   0.257   3.327  12.474
  892SOL     OW33169   0.264   5.286  12.448
  892SOL    HW133170   0.234   5.343  12.524
  892SOL    HW233171   0.257   5.189  12.474
  893SOL     OW33172   2.126   1.562  12.448
  893SOL    HW133173   2.096   1.619  12.524
  893SOL    HW233174   2.119   1.465  12.474
  894SOL     OW33175   2.126   3.424  12.448
  894SOL    HW133176   2.096   3.481  12.524
  894SOL    HW233177   2.119   3.327  12.474
  895SOL     OW33178   2.126   5.286  12.448
  895SOL    HW133179   2.096   5.343  12.524
  895SOL    HW233180   2.119   5.189  12.474
  896SOL     OW33181   3.988   1.562  12.448
  896SOL    HW133182   3.958   1.619  12.524
  896SOL    HW233183   3.981   1.465  12.474
  897SOL     OW33184   3.988   3.424  12.448
  897SOL    HW133185   3.958   3.481  12.524
  897SOL    HW233186   3.981   3.327  12.474
  898SOL     OW33187   3.988   5.286  12.448
  898SOL    HW133188   3.958   5.343  12.524
  898SOL    HW233189   3.981   5.189  12.474
  899SOL     OW33190   5.850   1.562  12.448
  899SOL    HW133191   5.820   1.619  12.524
  899SOL    HW233192   5.843   1.465  12.474
  900SOL     OW33193   5.850   3.424  12.448
  900SOL    HW133194   5.820   3.481  12.524
  900SOL    HW233195   5.843   3.327  12.474
  901SOL     OW33196   5.850   5.286  12.448
  901SOL    HW133197   5.820   5.343  12.524
  901SOL    HW233198   5.843   5.189  12.474
  902SOL     OW33199   1.441   1.171   0.399
  902SOL    HW133200   1.386   1.087   0.392
  902SOL    HW233201   1.467   1.200   0.307
  903SOL     OW33202   1.441   3.033   0.399
  903SOL    HW133203   1.386   2.949   0.392
  903SOL    HW233204   1.467   3.062   0.307
  904SOL     OW33205   1.441   4.895   0.399
  904SOL    HW133206   1.386   4.811   0.392
  904SOL    HW233207   1.467   4.924   0.307
  905SOL     OW33208   3.303   1.171   0.399
  905SOL    HW133209   3.248   1.087   0.392
  905SOL    HW233210   3.329   1.200   0.307
  906SOL     OW33211   3.303   3.033   0.399
  906SOL    HW133212   3.248   2.949   0.392
  906SOL    HW233213   3.329   3.062   0.307
  907SOL     OW33214   3.303   4.895   0.399
  907SOL    HW133215   3.248   4.811   0.392
  907SOL    HW233216   3.329   4.924   0.307
  908SOL     OW33217   5.165   1.171   0.399
  908SOL    HW133218   5.110   1.087   0.392
  908SOL    HW233219   5.191   1.200   0.307
  909SOL     OW33220   5.165   3.033   0.399
  909SOL    HW133221   5.110   2.949   0.392
  909SOL    HW233222   5.191   3.062   0.307
  910SOL     OW33223   5.165   4.895   0.399
  910SOL    HW133224   5.110   4.811   0.392
  910SOL    HW233225   5.191   4.924   0.307
  911SOL     OW33226   0.516   0.048  12.444
  911SOL    HW133227   0.474   6.441  12.374
  911SOL    HW233228   0.450   0.117  12.476
  912SOL     OW33229   0.516   1.910  12.444
  912SOL    HW133230   0.474   1.853  12.374
  912SOL    HW233231   0.450   1.979  12.476
  913SOL     OW33232   0.516   3.772  12.444
  913SOL    HW133233   0.474   3.715  12.374
  913SOL    HW233234   0.450   3.841  12.476
  914SOL     OW33235   0.516   5.634  12.444
  914SOL    HW133236   0.474   5.577  12.374
  914SOL    HW233237   0.450   5.703  12.476
  915SOL     OW33238   2.378   0.048  12.444
  915SOL    HW133239   2.336   6.441  12.374
  915SOL    HW233240   2.312   0.117  12.476
  916SOL     OW33241   2.378   1.910  12.444
  916SOL    HW133242   2.336   1.853  12.374
  916SOL    HW233243   2.312   1.979  12.476
  917SOL     OW33244   2.378   3.772  12.444
  917SOL    HW133245   2.336   3.715  12.374
  917SOL    HW233246   2.312   3.841  12.476
  918SOL     OW33247   2.378   5.634  12.444
  918SOL    HW133248   2.336   5.577  12.374
  918SOL    HW233249   2.312   5.703  12.476
  919SOL     OW33250   4.240   0.048  12.444
  919SOL    HW133251   4.198   6.441  12.374
  919SOL    HW233252   4.174   0.117  12.476
  920SOL     OW33253   4.240   1.910  12.444
  920SOL    HW133254   4.198   1.853  12.374
  920SOL    HW233255   4.174   1.979  12.476
  921SOL     OW33256   4.240   3.772  12.444
  921SOL    HW133257   4.198   3.715  12.374
  921SOL    HW233258   4.174   3.841  12.476
  922SOL     OW33259   4.240   5.634  12.444
  922SOL    HW133260   4.198   5.577  12.374
  922SOL    HW233261   4.174   5.703  12.476
  923SOL     OW33262   6.102   0.048  12.444
  923SOL    HW133263   6.060   6.441  12.374
  923SOL    HW233264   6.036   0.117  12.476
  924SOL     OW33265   6.102   1.910  12.444
  924SOL    HW133266   6.060   1.853  12.374
  924SOL    HW233267   6.036   1.979  12.476
  925SOL     OW33268   6.102   3.772  12.444
  925SOL    HW133269   6.060   3.715  12.374
  925SOL    HW233270   6.036   3.841  12.476
  926SOL     OW33271   6.102   5.634  12.444
  926SOL    HW133272   6.060   5.577  12.374
  926SOL    HW233273   6.036   5.703  12.476
  927SOL     OW33274   1.807   1.064   0.405
  927SOL    HW133275   1.745   1.049   0.329
  927SOL    HW233276   1.755   1.075   0.490
  928SOL     OW33277   1.807   2.926   0.405
  928SOL    HW133278   1.745   2.911   0.329
  928SOL    HW233279   1.755   2.937   0.490
  929SOL     OW33280   1.807   4.788   0.405
  929SOL    HW133281   1.745   4.773   0.329
  929SOL    HW233282   1.755   4.799   0.490
  930SOL     OW33283   3.669   1.064   0.405
  930SOL    HW133284   3.607   1.049   0.329
  930SOL    HW233285   3.617   1.075   0.490
  931SOL     OW33286   3.669   2.926   0.405
  931SOL    HW133287   3.607   2.911   0.329
  931SOL    HW233288   3.617   2.937   0.490
  932SOL     OW33289   3.669   4.788   0.405
  932SOL    HW133290   3.607   4.773   0.329
  932SOL    HW233291   3.617   4.799   0.490
  933SOL     OW33292   5.531   1.064   0.405
  933SOL    HW133293   5.469   1.049   0.329
  933SOL    HW233294   5.479   1.075   0.490
  934SOL     OW33295   5.531   2.926   0.405
  934SOL    HW133296   5.469   2.911   0.329
  934SOL    HW233297   5.479   2.937   0.490
  935SOL     OW33298   5.531   4.788   0.405
  935SOL    HW133299   5.469   4.773   0.329
  935SOL    HW233300   5.479   4.799   0.490
  936SOL     OW33301   1.559   0.220  12.433
  936SOL    HW133302   1.554   0.257  12.525
  936SOL    HW233303   1.487   0.151  12.421
  937SOL     OW33304   1.559   2.082  12.433
  937SOL    HW133305   1.554   2.119  12.525
  937SOL    HW233306   1.487   2.013  12.421
  938SOL     OW33307   1.559   3.944  12.433
  938SOL    HW133308   1.554   3.981  12.525
  938SOL    HW233309   1.487   3.875  12.421
  939SOL     OW33310   1.559   5.806  12.433
  939SOL    HW133311   1.554   5.843  12.525
  939SOL    HW233312   1.487   5.737  12.421
  940SOL     OW33313   3.421   0.220  12.433
  940SOL    HW133314   3.416   0.257  12.525
  940SOL    HW233315   3.349   0.151  12.421
  941SOL     OW33316   3.421   2.082  12.433
  941SOL    HW133317   3.416   2.119  12.525
  941SOL    HW233318   3.349   2.013  12.421
  942SOL     OW33319   3.421   3.944  12.433
  942SOL    HW133320   3.416   3.981  12.525
  942SOL    HW233321   3.349   3.875  12.421
  943SOL     OW33322   3.421   5.806  12.433
  943SOL    HW133323   3.416   5.843  12.525
  943SOL    HW233324   3.349   5.737  12.421
  944SOL     OW33325   5.283   0.220  12.433
  944SOL    HW133326   5.278   0.257  12.525
  944SOL    HW233327   5.211   0.151  12.421
  945SOL     OW33328   5.283   2.082  12.433
  945SOL    HW133329   5.278   2.119  12.525
  945SOL    HW233330   5.211   2.013  12.421
  946SOL     OW33331   5.283   3.944  12.433
  946SOL    HW133332   5.278   3.981  12.525
  946SOL    HW233333   5.211   3.875  12.421
  947SOL     OW33334   5.283   5.806  12.433
  947SOL    HW133335   5.278   5.843  12.525
  947SOL    HW233336   5.211   5.737  12.421
  948SOL     OW33337   1.605   0.219   0.414
  948SOL    HW133338   1.521   0.218   0.468
  948SOL    HW233339   1.607   0.302   0.358
  949SOL     OW33340   1.605   2.081   0.414
  949SOL    HW133341   1.521   2.080   0.468
  949SOL    HW233342   1.607   2.164   0.358
  950SOL     OW33343   1.605   3.943   0.414
  950SOL    HW133344   1.521   3.942   0.468
  950SOL    HW233345   1.607   4.026   0.358
  951SOL     OW33346   1.605   5.805   0.414
  951SOL    HW133347   1.521   5.804   0.468
  951SOL    HW233348   1.607   5.888   0.358
  952SOL     OW33349   3.467   0.219   0.414
  952SOL    HW133350   3.383   0.218   0.468
  952SOL    HW233351   3.469   0.302   0.358
  953SOL     OW33352   3.467   2.081   0.414
  953SOL    HW133353   3.383   2.080   0.468
  953SOL    HW233354   3.469   2.164   0.358
  954SOL     OW33355   3.467   3.943   0.414
  954SOL    HW133356   3.383   3.942   0.468
  954SOL    HW233357   3.469   4.026   0.358
  955SOL     OW33358   3.467   5.805   0.414
  955SOL    HW133359   3.383   5.804   0.468
  955SOL    HW233360   3.469   5.888   0.358
  956SOL     OW33361   5.329   0.219   0.414
  956SOL    HW133362   5.245   0.218   0.468
  956SOL    HW233363   5.331   0.302   0.358
  957SOL     OW33364   5.329   2.081   0.414
  957SOL    HW133365   5.245   2.080   0.468
  957SOL    HW233366   5.331   2.164   0.358
  958SOL     OW33367   5.329   3.943   0.414
  958SOL    HW133368   5.245   3.942   0.468
  958SOL    HW233369   5.331   4.026   0.358
  959SOL     OW33370   5.329   5.805   0.414
  959SOL    HW133371   5.245   5.804   0.468
  959SOL    HW233372   5.331   5.888   0.358
  960SOL     OW33373   0.473   1.264  12.431
  960SOL    HW133374   0.423   1.265  12.345
  960SOL    HW233375   0.410   1.246  12.507
  961SOL     OW33376   0.473   3.126  12.431
  961SOL    HW133377   0.423   3.127  12.345
  961SOL    HW233378   0.410   3.108  12.507
  962SOL     OW33379   0.473   4.988  12.431
  962SOL    HW133380   0.423   4.989  12.345
  962SOL    HW233381   0.410   4.970  12.507
  963SOL     OW33382   2.335   1.264  12.431
  963SOL    HW133383   2.285   1.265  12.345
  963SOL    HW233384   2.272   1.246  12.507
  964SOL     OW33385   2.335   3.126  12.431
  964SOL    HW133386   2.285   3.127  12.345
  964SOL    HW233387   2.272   3.108  12.507
  965SOL     OW33388   2.335   4.988  12.431
  965SOL    HW133389   2.285   4.989  12.345
  965SOL    HW233390   2.272   4.970  12.507
  966SOL     OW33391   4.197   1.264  12.431
  966SOL    HW133392   4.147   1.265  12.345
  966SOL    HW233393   4.134   1.246  12.507
  967SOL     OW33394   4.197   3.126  12.431
  967SOL    HW133395   4.147   3.127  12.345
  967SOL    HW233396   4.134   3.108  12.507
  968SOL     OW33397   4.197   4.988  12.431
  968SOL    HW133398   4.147   4.989  12.345
  968SOL    HW233399   4.134   4.970  12.507
  969SOL     OW33400   6.059   1.264  12.431
  969SOL    HW133401   6.009   1.265  12.345
  969SOL    HW233402   5.996   1.246  12.507
  970SOL     OW33403   6.059   3.126  12.431
  970SOL    HW133404   6.009   3.127  12.345
  970SOL    HW233405   5.996   3.108  12.507
  971SOL     OW33406   6.059   4.988  12.431
  971SOL    HW133407   6.009   4.989  12.345
  971SOL    HW233408   5.996   4.970  12.507
  972SOL     OW33409   0.117   1.011  12.430
  972SOL    HW133410   0.040   0.978  12.484
  972SOL    HW233411   0.202   0.981  12.472
  973SOL     OW33412   0.117   2.873  12.430
  973SOL    HW133413   0.040   2.840  12.484
  973SOL    HW233414   0.202   2.843  12.472
  974SOL     OW33415   0.117   4.735  12.430
  974SOL    HW133416   0.040   4.702  12.484
  974SOL    HW233417   0.202   4.705  12.472
  975SOL     OW33418   0.117   0.147  12.430
  975SOL    HW133419   0.040   0.114  12.484
  975SOL    HW233420   0.202   0.117  12.472
  976SOL     OW33421   1.979   1.011  12.430
  976SOL    HW133422   1.902   0.978  12.484
  976SOL    HW233423   2.064   0.981  12.472
  977SOL     OW33424   1.979   2.873  12.430
  977SOL    HW133425   1.902   2.840  12.484
  977SOL    HW233426   2.064   2.843  12.472
  978SOL     OW33427   1.979   4.735  12.430
  978SOL    HW133428   1.902   4.702  12.484
  978SOL    HW233429   2.064   4.705  12.472
  979SOL     OW33430   1.979   0.147  12.430
  979SOL    HW133431   1.902   0.114  12.484
  979SOL    HW233432   2.064   0.117  12.472
  980SOL     OW33433   3.841   1.011  12.430
  980SOL    HW133434   3.764   0.978  12.484
  980SOL    HW233435   3.926   0.981  12.472
  981SOL     OW33436   3.841   2.873  12.430
  981SOL    HW133437   3.764   2.840  12.484
  981SOL    HW233438   3.926   2.843  12.472
  982SOL     OW33439   3.841   4.735  12.430
  982SOL    HW133440   3.764   4.702  12.484
  982SOL    HW233441   3.926   4.705  12.472
  983SOL     OW33442   3.841   0.147  12.430
  983SOL    HW133443   3.764   0.114  12.484
  983SOL    HW233444   3.926   0.117  12.472
  984SOL     OW33445   5.703   1.011  12.430
  984SOL    HW133446   5.626   0.978  12.484
  984SOL    HW233447   5.788   0.981  12.472
  985SOL     OW33448   5.703   2.873  12.430
  985SOL    HW133449   5.626   2.840  12.484
  985SOL    HW233450   5.788   2.843  12.472
  986SOL     OW33451   5.703   4.735  12.430
  986SOL    HW133452   5.626   4.702  12.484
  986SOL    HW233453   5.788   4.705  12.472
  987SOL     OW33454   5.703   0.147  12.430
  987SOL    HW133455   5.626   0.114  12.484
  987SOL    HW233456   5.788   0.117  12.472
  988SOL     OW33457   0.562   0.194   0.417
  988SOL    HW133458   0.557   0.189   0.517
  988SOL    HW233459   0.564   0.290   0.388
  989SOL     OW33460   0.562   2.056   0.417
  989SOL    HW133461   0.557   2.051   0.517
  989SOL    HW233462   0.564   2.152   0.388
  990SOL     OW33463   0.562   3.918   0.417
  990SOL    HW133464   0.557   3.913   0.517
  990SOL    HW233465   0.564   4.014   0.388
  991SOL     OW33466   0.562   5.780   0.417
  991SOL    HW133467   0.557   5.775   0.517
  991SOL    HW233468   0.564   5.876   0.388
  992SOL     OW33469   2.424   0.194   0.417
  992SOL    HW133470   2.419   0.189   0.517
  992SOL    HW233471   2.426   0.290   0.388
  993SOL     OW33472   2.424   2.056   0.417
  993SOL    HW133473   2.419   2.051   0.517
  993SOL    HW233474   2.426   2.152   0.388
  994SOL     OW33475   2.424   3.918   0.417
  994SOL    HW133476   2.419   3.913   0.517
  994SOL    HW233477   2.426   4.014   0.388
  995SOL     OW33478   2.424   5.780   0.417
  995SOL    HW133479   2.419   5.775   0.517
  995SOL    HW233480   2.426   5.876   0.388
  996SOL     OW33481   4.286   0.194   0.417
  996SOL    HW133482   4.281   0.189   0.517
  996SOL    HW233483   4.288   0.290   0.388
  997SOL     OW33484   4.286   2.056   0.417
  997SOL    HW133485   4.281   2.051   0.517
  997SOL    HW233486   4.288   2.152   0.388
  998SOL     OW33487   4.286   3.918   0.417
  998SOL    HW133488   4.281   3.913   0.517
  998SOL    HW233489   4.288   4.014   0.388
  999SOL     OW33490   4.286   5.780   0.417
  999SOL    HW133491   4.281   5.775   0.517
  999SOL    HW233492   4.288   5.876   0.388
 1000SOL     OW33493   6.148   0.194   0.417
 1000SOL    HW133494   6.143   0.189   0.517
 1000SOL    HW233495   6.150   0.290   0.388
 1001SOL     OW33496   6.148   2.056   0.417
 1001SOL    HW133497   6.143   2.051   0.517
 1001SOL    HW233498   6.150   2.152   0.388
 1002SOL     OW33499   6.148   3.918   0.417
 1002SOL    HW133500   6.143   3.913   0.517
 1002SOL    HW233501   6.150   4.014   0.388
 1003SOL     OW33502   6.148   5.780   0.417
 1003SOL    HW133503   6.143   5.775   0.517
 1003SOL    HW233504   6.150   5.876   0.388
 1004SOL     OW33505   0.252   1.089   0.418
 1004SOL    HW133506   0.266   1.005   0.470
 1004SOL    HW233507   0.197   1.153   0.473
 1005SOL     OW33508   0.252   2.951   0.418
 1005SOL    HW133509   0.266   2.867   0.470
 1005SOL    HW233510   0.197   3.015   0.473
 1006SOL     OW33511   0.252   4.813   0.418
 1006SOL    HW133512   0.266   4.729   0.470
 1006SOL    HW233513   0.197   4.877   0.473
 1007SOL     OW33514   2.114   1.089   0.418
 1007SOL    HW133515   2.128   1.005   0.470
 1007SOL    HW233516   2.059   1.153   0.473
 1008SOL     OW33517   2.114   2.951   0.418
 1008SOL    HW133518   2.128   2.867   0.470
 1008SOL    HW233519   2.059   3.015   0.473
 1009SOL     OW33520   2.114   4.813   0.418
 1009SOL    HW133521   2.128   4.729   0.470
 1009SOL    HW233522   2.059   4.877   0.473
 1010SOL     OW33523   3.976   1.089   0.418
 1010SOL    HW133524   3.990   1.005   0.470
 1010SOL    HW233525   3.921   1.153   0.473
 1011SOL     OW33526   3.976   2.951   0.418
 1011SOL    HW133527   3.990   2.867   0.470
 1011SOL    HW233528   3.921   3.015   0.473
 1012SOL     OW33529   3.976   4.813   0.418
 1012SOL    HW133530   3.990   4.729   0.470
 1012SOL    HW233531   3.921   4.877   0.473
 1013SOL     OW33532   5.838   1.089   0.418
 1013SOL    HW133533   5.852   1.005   0.470
 1013SOL    HW233534   5.783   1.153   0.473
 1014SOL     OW33535   5.838   2.951   0.418
 1014SOL    HW133536   5.852   2.867   0.470
 1014SOL    HW233537   5.783   3.015   0.473
 1015SOL     OW33538   5.838   4.813   0.418
 1015SOL    HW133539   5.852   4.729   0.470
 1015SOL    HW233540   5.783   4.877   0.473
 1016SOL     OW33541   0.201   0.518  12.426
 1016SOL    HW133542   0.260   0.478  12.356
 1016SOL    HW233543   0.143   0.589  12.385
 1017SOL     OW33544   0.201   2.380  12.426
 1017SOL    HW133545   0.260   2.340  12.356
 1017SOL    HW233546   0.143   2.451  12.385
 1018SOL     OW33547   0.201   4.242  12.426
 1018SOL    HW133548   0.260   4.202  12.356
 1018SOL    HW233549   0.143   4.313  12.385
 1019SOL     OW33550   0.201   6.104  12.426
 1019SOL    HW133551   0.260   6.064  12.356
 1019SOL    HW233552   0.143   6.175  12.385
 1020SOL     OW33553   2.063   0.518  12.426
 1020SOL    HW133554   2.122   0.478  12.356
 1020SOL    HW233555   2.005   0.589  12.385
 1021SOL     OW33556   2.063   2.380  12.426
 1021SOL    HW133557   2.122   2.340  12.356
 1021SOL    HW233558   2.005   2.451  12.385
 1022SOL     OW33559   2.063   4.242  12.426
 1022SOL    HW133560   2.122   4.202  12.356
 1022SOL    HW233561   2.005   4.313  12.385
 1023SOL     OW33562   2.063   6.104  12.426
 1023SOL    HW133563   2.122   6.064  12.356
 1023SOL    HW233564   2.005   6.175  12.385
 1024SOL     OW33565   3.925   0.518  12.426
 1024SOL    HW133566   3.984   0.478  12.356
 1024SOL    HW233567   3.867   0.589  12.385
 1025SOL     OW33568   3.925   2.380  12.426
 1025SOL    HW133569   3.984   2.340  12.356
 1025SOL    HW233570   3.867   2.451  12.385
 1026SOL     OW33571   3.925   4.242  12.426
 1026SOL    HW133572   3.984   4.202  12.356
 1026SOL    HW233573   3.867   4.313  12.385
 1027SOL     OW33574   3.925   6.104  12.426
 1027SOL    HW133575   3.984   6.064  12.356
 1027SOL    HW233576   3.867   6.175  12.385
 1028SOL     OW33577   5.787   0.518  12.426
 1028SOL    HW133578   5.846   0.478  12.356
 1028SOL    HW233579   5.729   0.589  12.385
 1029SOL     OW33580   5.787   2.380  12.426
 1029SOL    HW133581   5.846   2.340  12.356
 1029SOL    HW233582   5.729   2.451  12.385
 1030SOL     OW33583   5.787   4.242  12.426
 1030SOL    HW133584   5.846   4.202  12.356
 1030SOL    HW233585   5.729   4.313  12.385
 1031SOL     OW33586   5.787   6.104  12.426
 1031SOL    HW133587   5.846   6.064  12.356
 1031SOL    HW233588   5.729   6.175  12.385
 1032SOL     OW33589   0.992   1.114  12.423
 1032SOL    HW133590   0.893   1.120  12.433
 1032SOL    HW233591   1.015   1.034  12.367
 1033SOL     OW33592   0.992   2.976  12.423
 1033SOL    HW133593   0.893   2.982  12.433
 1033SOL    HW233594   1.015   2.896  12.367
 1034SOL     OW33595   0.992   4.838  12.423
 1034SOL    HW133596   0.893   4.844  12.433
 1034SOL    HW233597   1.015   4.758  12.367
 1035SOL     OW33598   2.854   1.114  12.423
 1035SOL    HW133599   2.755   1.120  12.433
 1035SOL    HW233600   2.877   1.034  12.367
 1036SOL     OW33601   2.854   2.976  12.423
 1036SOL    HW133602   2.755   2.982  12.433
 1036SOL    HW233603   2.877   2.896  12.367
 1037SOL     OW33604   2.854   4.838  12.423
 1037SOL    HW133605   2.755   4.844  12.433
 1037SOL    HW233606   2.877   4.758  12.367
 1038SOL     OW33607   4.716   1.114  12.423
 1038SOL    HW133608   4.617   1.120  12.433
 1038SOL    HW233609   4.739   1.034  12.367
 1039SOL     OW33610   4.716   2.976  12.423
 1039SOL    HW133611   4.617   2.982  12.433
 1039SOL    HW233612   4.739   2.896  12.367
 1040SOL     OW33613   4.716   4.838  12.423
 1040SOL    HW133614   4.617   4.844  12.433
 1040SOL    HW233615   4.739   4.758  12.367
 1041SOL     OW33616   0.700   1.660  12.420
 1041SOL    HW133617   0.644   1.741  12.429
 1041SOL    HW233618   0.752   1.664  12.334
 1042SOL     OW33619   0.700   3.522  12.420
 1042SOL    HW133620   0.644   3.603  12.429
 1042SOL    HW233621   0.752   3.526  12.334
 1043SOL     OW33622   0.700   5.384  12.420
 1043SOL    HW133623   0.644   5.465  12.429
 1043SOL    HW233624   0.752   5.388  12.334
 1044SOL     OW33625   2.562   1.660  12.420
 1044SOL    HW133626   2.506   1.741  12.429
 1044SOL    HW233627   2.614   1.664  12.334
 1045SOL     OW33628   2.562   3.522  12.420
 1045SOL    HW133629   2.506   3.603  12.429
 1045SOL    HW233630   2.614   3.526  12.334
 1046SOL     OW33631   2.562   5.384  12.420
 1046SOL    HW133632   2.506   5.465  12.429
 1046SOL    HW233633   2.614   5.388  12.334
 1047SOL     OW33634   4.424   1.660  12.420
 1047SOL    HW133635   4.368   1.741  12.429
 1047SOL    HW233636   4.476   1.664  12.334
 1048SOL     OW33637   4.424   3.522  12.420
 1048SOL    HW133638   4.368   3.603  12.429
 1048SOL    HW233639   4.476   3.526  12.334
 1049SOL     OW33640   4.424   5.384  12.420
 1049SOL    HW133641   4.368   5.465  12.429
 1049SOL    HW233642   4.476   5.388  12.334
 1050SOL     OW33643   6.286   1.660  12.420
 1050SOL    HW133644   6.230   1.741  12.429
 1050SOL    HW233645   6.338   1.664  12.334
 1051SOL     OW33646   6.286   3.522  12.420
 1051SOL    HW133647   6.230   3.603  12.429
 1051SOL    HW233648   6.338   3.526  12.334
 1052SOL     OW33649   6.286   5.384  12.420
 1052SOL    HW133650   6.230   5.465  12.429
 1052SOL    HW233651   6.338   5.388  12.334
 1053SOL     OW33652   0.934   0.501   0.431
 1053SOL    HW133653   0.909   0.492   0.335
 1053SOL    HW233654   0.982   0.419   0.462
 1054SOL     OW33655   0.934   2.363   0.431
 1054SOL    HW133656   0.909   2.354   0.335
 1054SOL    HW233657   0.982   2.281   0.462
 1055SOL     OW33658   0.934   4.225   0.431
 1055SOL    HW133659   0.909   4.216   0.335
 1055SOL    HW233660   0.982   4.143   0.462
 1056SOL     OW33661   0.934   6.087   0.431
 1056SOL    HW133662   0.909   6.078   0.335
 1056SOL    HW233663   0.982   6.005   0.462
 1057SOL     OW33664   2.796   0.501   0.431
 1057SOL    HW133665   2.771   0.492   0.335
 1057SOL    HW233666   2.844   0.419   0.462
 1058SOL     OW33667   2.796   2.363   0.431
 1058SOL    HW133668   2.771   2.354   0.335
 1058SOL    HW233669   2.844   2.281   0.462
 1059SOL     OW33670   2.796   4.225   0.431
 1059SOL    HW133671   2.771   4.216   0.335
 1059SOL    HW233672   2.844   4.143   0.462
 1060SOL     OW33673   2.796   6.087   0.431
 1060SOL    HW133674   2.771   6.078   0.335
 1060SOL    HW233675   2.844   6.005   0.462
 1061SOL     OW33676   4.658   0.501   0.431
 1061SOL    HW133677   4.633   0.492   0.335
 1061SOL    HW233678   4.706   0.419   0.462
 1062SOL     OW33679   4.658   2.363   0.431
 1062SOL    HW133680   4.633   2.354   0.335
 1062SOL    HW233681   4.706   2.281   0.462
 1063SOL     OW33682   4.658   4.225   0.431
 1063SOL    HW133683   4.633   4.216   0.335
 1063SOL    HW233684   4.706   4.143   0.462
 1064SOL     OW33685   4.658   6.087   0.431
 1064SOL    HW133686   4.633   6.078   0.335
 1064SOL    HW233687   4.706   6.005   0.462
 1065SOL     OW33688   0.070   0.501   0.431
 1065SOL    HW133689   0.045   0.492   0.335
 1065SOL    HW233690   0.118   0.419   0.462
 1066SOL     OW33691   0.070   2.363   0.431
 1066SOL    HW133692   0.045   2.354   0.335
 1066SOL    HW233693   0.118   2.281   0.462
 1067SOL     OW33694   0.070   4.225   0.431
 1067SOL    HW133695   0.045   4.216   0.335
 1067SOL    HW233696   0.118   4.143   0.462
 1068SOL     OW33697   0.070   6.087   0.431
 1068SOL    HW133698   0.045   6.078   0.335
 1068SOL    HW233699   0.118   6.005   0.462
 1069SOL     OW33700   0.728   0.563  12.412
 1069SOL    HW133701   0.747   0.628  12.486
 1069SOL    HW233702   0.788   0.483  12.421
 1070SOL     OW33703   0.728   2.425  12.412
 1070SOL    HW133704   0.747   2.490  12.486
 1070SOL    HW233705   0.788   2.345  12.421
 1071SOL     OW33706   0.728   4.287  12.412
 1071SOL    HW133707   0.747   4.352  12.486
 1071SOL    HW233708   0.788   4.207  12.421
 1072SOL     OW33709   0.728   6.149  12.412
 1072SOL    HW133710   0.747   6.214  12.486
 1072SOL    HW233711   0.788   6.069  12.421
 1073SOL     OW33712   2.590   0.563  12.412
 1073SOL    HW133713   2.609   0.628  12.486
 1073SOL    HW233714   2.650   0.483  12.421
 1074SOL     OW33715   2.590   2.425  12.412
 1074SOL    HW133716   2.609   2.490  12.486
 1074SOL    HW233717   2.650   2.345  12.421
 1075SOL     OW33718   2.590   4.287  12.412
 1075SOL    HW133719   2.609   4.352  12.486
 1075SOL    HW233720   2.650   4.207  12.421
 1076SOL     OW33721   2.590   6.149  12.412
 1076SOL    HW133722   2.609   6.214  12.486
 1076SOL    HW233723   2.650   6.069  12.421
 1077SOL     OW33724   4.452   0.563  12.412
 1077SOL    HW133725   4.471   0.628  12.486
 1077SOL    HW233726   4.512   0.483  12.421
 1078SOL     OW33727   4.452   2.425  12.412
 1078SOL    HW133728   4.471   2.490  12.486
 1078SOL    HW233729   4.512   2.345  12.421
 1079SOL     OW33730   4.452   4.287  12.412
 1079SOL    HW133731   4.471   4.352  12.486
 1079SOL    HW233732   4.512   4.207  12.421
 1080SOL     OW33733   4.452   6.149  12.412
 1080SOL    HW133734   4.471   6.214  12.486
 1080SOL    HW233735   4.512   6.069  12.421
 1081SOL     OW33736   6.314   0.563  12.412
 1081SOL    HW133737   6.333   0.628  12.486
 1081SOL    HW233738   6.374   0.483  12.421
 1082SOL     OW33739   6.314   2.425  12.412
 1082SOL    HW133740   6.333   2.490  12.486
 1082SOL    HW233741   6.374   2.345  12.421
 1083SOL     OW33742   6.314   4.287  12.412
 1083SOL    HW133743   6.333   4.352  12.486
 1083SOL    HW233744   6.374   4.207  12.421
 1084SOL     OW33745   6.314   6.149  12.412
 1084SOL    HW133746   6.333   6.214  12.486
 1084SOL    HW233747   6.374   6.069  12.421
 1085SOL     OW33748   0.952   1.696   0.436
 1085SOL    HW133749   1.032   1.639   0.457
 1085SOL    HW233750   0.903   1.656   0.359
 1086SOL     OW33751   0.952   3.558   0.436
 1086SOL    HW133752   1.032   3.501   0.457
 1086SOL    HW233753   0.903   3.518   0.359
 1087SOL     OW33754   0.952   5.420   0.436
 1087SOL    HW133755   1.032   5.363   0.457
 1087SOL    HW233756   0.903   5.380   0.359
 1088SOL     OW33757   2.814   1.696   0.436
 1088SOL    HW133758   2.894   1.639   0.457
 1088SOL    HW233759   2.765   1.656   0.359
 1089SOL     OW33760   2.814   3.558   0.436
 1089SOL    HW133761   2.894   3.501   0.457
 1089SOL    HW233762   2.765   3.518   0.359
 1090SOL     OW33763   2.814   5.420   0.436
 1090SOL    HW133764   2.894   5.363   0.457
 1090SOL    HW233765   2.765   5.380   0.359
 1091SOL     OW33766   4.676   1.696   0.436
 1091SOL    HW133767   4.756   1.639   0.457
 1091SOL    HW233768   4.627   1.656   0.359
 1092SOL     OW33769   4.676   3.558   0.436
 1092SOL    HW133770   4.756   3.501   0.457
 1092SOL    HW233771   4.627   3.518   0.359
 1093SOL     OW33772   4.676   5.420   0.436
 1093SOL    HW133773   4.756   5.363   0.457
 1093SOL    HW233774   4.627   5.380   0.359
 1094SOL     OW33775   0.992   1.571  12.404
 1094SOL    HW133776   0.972   1.615  12.316
 1094SOL    HW233777   1.031   1.480  12.388
 1095SOL     OW33778   0.992   3.433  12.404
 1095SOL    HW133779   0.972   3.477  12.316
 1095SOL    HW233780   1.031   3.342  12.388
 1096SOL     OW33781   0.992   5.295  12.404
 1096SOL    HW133782   0.972   5.339  12.316
 1096SOL    HW233783   1.031   5.204  12.388
 1097SOL     OW33784   2.854   1.571  12.404
 1097SOL    HW133785   2.834   1.615  12.316
 1097SOL    HW233786   2.893   1.480  12.388
 1098SOL     OW33787   2.854   3.433  12.404
 1098SOL    HW133788   2.834   3.477  12.316
 1098SOL    HW233789   2.893   3.342  12.388
 1099SOL     OW33790   2.854   5.295  12.404
 1099SOL    HW133791   2.834   5.339  12.316
 1099SOL    HW233792   2.893   5.204  12.388
 1100SOL     OW33793   4.716   1.571  12.404
 1100SOL    HW133794   4.696   1.615  12.316
 1100SOL    HW233795   4.755   1.480  12.388
 1101SOL     OW33796   4.716   3.433  12.404
 1101SOL    HW133797   4.696   3.477  12.316
 1101SOL    HW233798   4.755   3.342  12.388
 1102SOL     OW33799   4.716   5.295  12.404
 1102SOL    HW133800   4.696   5.339  12.316
 1102SOL    HW233801   4.755   5.204  12.388
 1103SOL     OW33802   0.516   1.566   0.442
 1103SOL    HW133803   0.582   1.640   0.451
 1103SOL    HW233804   0.560   1.487   0.400
 1104SOL     OW33805   0.516   3.428   0.442
 1104SOL    HW133806   0.582   3.502   0.451
 1104SOL    HW233807   0.560   3.349   0.400
 1105SOL     OW33808   0.516   5.290   0.442
 1105SOL    HW133809   0.582   5.364   0.451
 1105SOL    HW233810   0.560   5.211   0.400
 1106SOL     OW33811   2.378   1.566   0.442
 1106SOL    HW133812   2.444   1.640   0.451
 1106SOL    HW233813   2.422   1.487   0.400
 1107SOL     OW33814   2.378   3.428   0.442
 1107SOL    HW133815   2.444   3.502   0.451
 1107SOL    HW233816   2.422   3.349   0.400
 1108SOL     OW33817   2.378   5.290   0.442
 1108SOL    HW133818   2.444   5.364   0.451
 1108SOL    HW233819   2.422   5.211   0.400
 1109SOL     OW33820   4.240   1.566   0.442
 1109SOL    HW133821   4.306   1.640   0.451
 1109SOL    HW233822   4.284   1.487   0.400
 1110SOL     OW33823   4.240   3.428   0.442
 1110SOL    HW133824   4.306   3.502   0.451
 1110SOL    HW233825   4.284   3.349   0.400
 1111SOL     OW33826   4.240   5.290   0.442
 1111SOL    HW133827   4.306   5.364   0.451
 1111SOL    HW233828   4.284   5.211   0.400
 1112SOL     OW33829   6.102   1.566   0.442
 1112SOL    HW133830   6.168   1.640   0.451
 1112SOL    HW233831   6.146   1.487   0.400
 1113SOL     OW33832   6.102   3.428   0.442
 1113SOL    HW133833   6.168   3.502   0.451
 1113SOL    HW233834   6.146   3.349   0.400
 1114SOL     OW33835   6.102   5.290   0.442
 1114SOL    HW133836   6.168   5.364   0.451
 1114SOL    HW233837   6.146   5.211   0.400
 1115SOL     OW33838   1.139   1.339  12.394
 1115SOL    HW133839   1.186   1.339  12.482
 1115SOL    HW233840   1.091   1.252  12.383
 1116SOL     OW33841   1.139   3.201  12.394
 1116SOL    HW133842   1.186   3.201  12.482
 1116SOL    HW233843   1.091   3.114  12.383
 1117SOL     OW33844   1.139   5.063  12.394
 1117SOL    HW133845   1.186   5.063  12.482
 1117SOL    HW233846   1.091   4.976  12.383
 1118SOL     OW33847   3.001   1.339  12.394
 1118SOL    HW133848   3.048   1.339  12.482
 1118SOL    HW233849   2.953   1.252  12.383
 1119SOL     OW33850   3.001   3.201  12.394
 1119SOL    HW133851   3.048   3.201  12.482
 1119SOL    HW233852   2.953   3.114  12.383
 1120SOL     OW33853   3.001   5.063  12.394
 1120SOL    HW133854   3.048   5.063  12.482
 1120SOL    HW233855   2.953   4.976  12.383
 1121SOL     OW33856   4.863   1.339  12.394
 1121SOL    HW133857   4.910   1.339  12.482
 1121SOL    HW233858   4.815   1.252  12.383
 1122SOL     OW33859   4.863   3.201  12.394
 1122SOL    HW133860   4.910   3.201  12.482
 1122SOL    HW233861   4.815   3.114  12.383
 1123SOL     OW33862   4.863   5.063  12.394
 1123SOL    HW133863   4.910   5.063  12.482
 1123SOL    HW233864   4.815   4.976  12.383
 1124SOL     OW33865   0.815   1.400   0.456
 1124SOL    HW133866   0.905   1.414   0.414
 1124SOL    HW233867   0.744   1.402   0.385
 1125SOL     OW33868   0.815   3.262   0.456
 1125SOL    HW133869   0.905   3.276   0.414
 1125SOL    HW233870   0.744   3.264   0.385
 1126SOL     OW33871   0.815   5.124   0.456
 1126SOL    HW133872   0.905   5.138   0.414
 1126SOL    HW233873   0.744   5.126   0.385
 1127SOL     OW33874   2.677   1.400   0.456
 1127SOL    HW133875   2.767   1.414   0.414
 1127SOL    HW233876   2.606   1.402   0.385
 1128SOL     OW33877   2.677   3.262   0.456
 1128SOL    HW133878   2.767   3.276   0.414
 1128SOL    HW233879   2.606   3.264   0.385
 1129SOL     OW33880   2.677   5.124   0.456
 1129SOL    HW133881   2.767   5.138   0.414
 1129SOL    HW233882   2.606   5.126   0.385
 1130SOL     OW33883   4.539   1.400   0.456
 1130SOL    HW133884   4.629   1.414   0.414
 1130SOL    HW233885   4.468   1.402   0.385
 1131SOL     OW33886   4.539   3.262   0.456
 1131SOL    HW133887   4.629   3.276   0.414
 1131SOL    HW233888   4.468   3.264   0.385
 1132SOL     OW33889   4.539   5.124   0.456
 1132SOL    HW133890   4.629   5.138   0.414
 1132SOL    HW233891   4.468   5.126   0.385
 1133SOL     OW33892   6.401   1.400   0.456
 1133SOL    HW133893   0.041   1.414   0.414
 1133SOL    HW233894   6.330   1.402   0.385
 1134SOL     OW33895   6.401   3.262   0.456
 1134SOL    HW133896   0.041   3.276   0.414
 1134SOL    HW233897   6.330   3.264   0.385
 1135SOL     OW33898   6.401   5.124   0.456
 1135SOL    HW133899   0.041   5.138   0.414
 1135SOL    HW233900   6.330   5.126   0.385
 1136SOL     OW33901   0.100   1.799   0.459
 1136SOL    HW133902   0.058   1.713   0.432
 1136SOL    HW233903   0.194   1.802   0.425
 1137SOL     OW33904   0.100   3.661   0.459
 1137SOL    HW133905   0.058   3.575   0.432
 1137SOL    HW233906   0.194   3.664   0.425
 1138SOL     OW33907   0.100   5.523   0.459
 1138SOL    HW133908   0.058   5.437   0.432
 1138SOL    HW233909   0.194   5.526   0.425
 1139SOL     OW33910   1.962   1.799   0.459
 1139SOL    HW133911   1.920   1.713   0.432
 1139SOL    HW233912   2.056   1.802   0.425
 1140SOL     OW33913   1.962   3.661   0.459
 1140SOL    HW133914   1.920   3.575   0.432
 1140SOL    HW233915   2.056   3.664   0.425
 1141SOL     OW33916   1.962   5.523   0.459
 1141SOL    HW133917   1.920   5.437   0.432
 1141SOL    HW233918   2.056   5.526   0.425
 1142SOL     OW33919   3.824   1.799   0.459
 1142SOL    HW133920   3.782   1.713   0.432
 1142SOL    HW233921   3.918   1.802   0.425
 1143SOL     OW33922   3.824   3.661   0.459
 1143SOL    HW133923   3.782   3.575   0.432
 1143SOL    HW233924   3.918   3.664   0.425
 1144SOL     OW33925   3.824   5.523   0.459
 1144SOL    HW133926   3.782   5.437   0.432
 1144SOL    HW233927   3.918   5.526   0.425
 1145SOL     OW33928   5.686   1.799   0.459
 1145SOL    HW133929   5.644   1.713   0.432
 1145SOL    HW233930   5.780   1.802   0.425
 1146SOL     OW33931   5.686   3.661   0.459
 1146SOL    HW133932   5.644   3.575   0.432
 1146SOL    HW233933   5.780   3.664   0.425
 1147SOL     OW33934   5.686   5.523   0.459
 1147SOL    HW133935   5.644   5.437   0.432
 1147SOL    HW233936   5.780   5.526   0.425
 1148SOL     OW33937   1.150   0.378  12.382
 1148SOL    HW133938   1.105   0.441  12.446
 1148SOL    HW233939   1.243   0.409  12.365
 1149SOL     OW33940   1.150   2.240  12.382
 1149SOL    HW133941   1.105   2.303  12.446
 1149SOL    HW233942   1.243   2.271  12.365
 1150SOL     OW33943   1.150   4.102  12.382
 1150SOL    HW133944   1.105   4.165  12.446
 1150SOL    HW233945   1.243   4.133  12.365
 1151SOL     OW33946   1.150   5.964  12.382
 1151SOL    HW133947   1.105   6.027  12.446
 1151SOL    HW233948   1.243   5.995  12.365
 1152SOL     OW33949   3.012   0.378  12.382
 1152SOL    HW133950   2.967   0.441  12.446
 1152SOL    HW233951   3.105   0.409  12.365
 1153SOL     OW33952   3.012   2.240  12.382
 1153SOL    HW133953   2.967   2.303  12.446
 1153SOL    HW233954   3.105   2.271  12.365
 1154SOL     OW33955   3.012   4.102  12.382
 1154SOL    HW133956   2.967   4.165  12.446
 1154SOL    HW233957   3.105   4.133  12.365
 1155SOL     OW33958   3.012   5.964  12.382
 1155SOL    HW133959   2.967   6.027  12.446
 1155SOL    HW233960   3.105   5.995  12.365
 1156SOL     OW33961   4.874   0.378  12.382
 1156SOL    HW133962   4.829   0.441  12.446
 1156SOL    HW233963   4.967   0.409  12.365
 1157SOL     OW33964   4.874   2.240  12.382
 1157SOL    HW133965   4.829   2.303  12.446
 1157SOL    HW233966   4.967   2.271  12.365
 1158SOL     OW33967   4.874   4.102  12.382
 1158SOL    HW133968   4.829   4.165  12.446
 1158SOL    HW233969   4.967   4.133  12.365
 1159SOL     OW33970   4.874   5.964  12.382
 1159SOL    HW133971   4.829   6.027  12.446
 1159SOL    HW233972   4.967   5.995  12.365
 1160SOL     OW33973   1.406   0.467  12.378
 1160SOL    HW133974   1.386   0.510  12.466
 1160SOL    HW233975   1.484   0.405  12.387
 1161SOL     OW33976   1.406   2.329  12.378
 1161SOL    HW133977   1.386   2.372  12.466
 1161SOL    HW233978   1.484   2.267  12.387
 1162SOL     OW33979   1.406   4.191  12.378
 1162SOL    HW133980   1.386   4.234  12.466
 1162SOL    HW233981   1.484   4.129  12.387
 1163SOL     OW33982   1.406   6.053  12.378
 1163SOL    HW133983   1.386   6.096  12.466
 1163SOL    HW233984   1.484   5.991  12.387
 1164SOL     OW33985   3.268   0.467  12.378
 1164SOL    HW133986   3.248   0.510  12.466
 1164SOL    HW233987   3.346   0.405  12.387
 1165SOL     OW33988   3.268   2.329  12.378
 1165SOL    HW133989   3.248   2.372  12.466
 1165SOL    HW233990   3.346   2.267  12.387
 1166SOL     OW33991   3.268   4.191  12.378
 1166SOL    HW133992   3.248   4.234  12.466
 1166SOL    HW233993   3.346   4.129  12.387
 1167SOL     OW33994   3.268   6.053  12.378
 1167SOL    HW133995   3.248   6.096  12.466
 1167SOL    HW233996   3.346   5.991  12.387
 1168SOL     OW33997   5.130   0.467  12.378
 1168SOL    HW133998   5.110   0.510  12.466
 1168SOL    HW233999   5.208   0.405  12.387
 1169SOL     OW34000   5.130   2.329  12.378
 1169SOL    HW134001   5.110   2.372  12.466
 1169SOL    HW234002   5.208   2.267  12.387
 1170SOL     OW34003   5.130   4.191  12.378
 1170SOL    HW134004   5.110   4.234  12.466
 1170SOL    HW234005   5.208   4.129  12.387
 1171SOL     OW34006   5.130   6.053  12.378
 1171SOL    HW134007   5.110   6.096  12.466
 1171SOL    HW234008   5.208   5.991  12.387
 1172SOL     OW34009   1.599   0.777  12.374
 1172SOL    HW134010   1.507   0.815  12.369
 1172SOL    HW234011   1.659   0.824  12.309
 1173SOL     OW34012   1.599   2.639  12.374
 1173SOL    HW134013   1.507   2.677  12.369
 1173SOL    HW234014   1.659   2.686  12.309
 1174SOL     OW34015   1.599   4.501  12.374
 1174SOL    HW134016   1.507   4.539  12.369
 1174SOL    HW234017   1.659   4.548  12.309
 1175SOL     OW34018   1.599   6.363  12.374
 1175SOL    HW134019   1.507   6.401  12.369
 1175SOL    HW234020   1.659   6.410  12.309
 1176SOL     OW34021   3.461   0.777  12.374
 1176SOL    HW134022   3.369   0.815  12.369
 1176SOL    HW234023   3.521   0.824  12.309
 1177SOL     OW34024   3.461   2.639  12.374
 1177SOL    HW134025   3.369   2.677  12.369
 1177SOL    HW234026   3.521   2.686  12.309
 1178SOL     OW34027   3.461   4.501  12.374
 1178SOL    HW134028   3.369   4.539  12.369
 1178SOL    HW234029   3.521   4.548  12.309
 1179SOL     OW34030   3.461   6.363  12.374
 1179SOL    HW134031   3.369   6.401  12.369
 1179SOL    HW234032   3.521   6.410  12.309
 1180SOL     OW34033   5.323   0.777  12.374
 1180SOL    HW134034   5.231   0.815  12.369
 1180SOL    HW234035   5.383   0.824  12.309
 1181SOL     OW34036   5.323   2.639  12.374
 1181SOL    HW134037   5.231   2.677  12.369
 1181SOL    HW234038   5.383   2.686  12.309
 1182SOL     OW34039   5.323   4.501  12.374
 1182SOL    HW134040   5.231   4.539  12.369
 1182SOL    HW234041   5.383   4.548  12.309
 1183SOL     OW34042   5.323   6.363  12.374
 1183SOL    HW134043   5.231   6.401  12.369
 1183SOL    HW234044   5.383   6.410  12.309
 1184SOL     OW34045   1.293   0.343   0.476
 1184SOL    HW134046   1.207   0.293   0.463
 1184SOL    HW234047   1.355   0.289   0.532
 1185SOL     OW34048   1.293   2.205   0.476
 1185SOL    HW134049   1.207   2.155   0.463
 1185SOL    HW234050   1.355   2.151   0.532
 1186SOL     OW34051   1.293   4.067   0.476
 1186SOL    HW134052   1.207   4.017   0.463
 1186SOL    HW234053   1.355   4.013   0.532
 1187SOL     OW34054   1.293   5.929   0.476
 1187SOL    HW134055   1.207   5.879   0.463
 1187SOL    HW234056   1.355   5.875   0.532
 1188SOL     OW34057   3.155   0.343   0.476
 1188SOL    HW134058   3.069   0.293   0.463
 1188SOL    HW234059   3.217   0.289   0.532
 1189SOL     OW34060   3.155   2.205   0.476
 1189SOL    HW134061   3.069   2.155   0.463
 1189SOL    HW234062   3.217   2.151   0.532
 1190SOL     OW34063   3.155   4.067   0.476
 1190SOL    HW134064   3.069   4.017   0.463
 1190SOL    HW234065   3.217   4.013   0.532
 1191SOL     OW34066   3.155   5.929   0.476
 1191SOL    HW134067   3.069   5.879   0.463
 1191SOL    HW234068   3.217   5.875   0.532
 1192SOL     OW34069   5.017   0.343   0.476
 1192SOL    HW134070   4.931   0.293   0.463
 1192SOL    HW234071   5.079   0.289   0.532
 1193SOL     OW34072   5.017   2.205   0.476
 1193SOL    HW134073   4.931   2.155   0.463
 1193SOL    HW234074   5.079   2.151   0.532
 1194SOL     OW34075   5.017   4.067   0.476
 1194SOL    HW134076   4.931   4.017   0.463
 1194SOL    HW234077   5.079   4.013   0.532
 1195SOL     OW34078   5.017   5.929   0.476
 1195SOL    HW134079   4.931   5.879   0.463
 1195SOL    HW234080   5.079   5.875   0.532
 1196SOL     OW34081   0.331   0.808   0.481
 1196SOL    HW134082   0.424   0.844   0.486
 1196SOL    HW234083   0.325   0.723   0.533
 1197SOL     OW34084   0.331   2.670   0.481
 1197SOL    HW134085   0.424   2.706   0.486
 1197SOL    HW234086   0.325   2.585   0.533
 1198SOL     OW34087   0.331   4.532   0.481
 1198SOL    HW134088   0.424   4.568   0.486
 1198SOL    HW234089   0.325   4.447   0.533
 1199SOL     OW34090   0.331   6.394   0.481
 1199SOL    HW134091   0.424   6.430   0.486
 1199SOL    HW234092   0.325   6.309   0.533
 1200SOL     OW34093   2.193   0.808   0.481
 1200SOL    HW134094   2.286   0.844   0.486
 1200SOL    HW234095   2.187   0.723   0.533
 1201SOL     OW34096   2.193   2.670   0.481
 1201SOL    HW134097   2.286   2.706   0.486
 1201SOL    HW234098   2.187   2.585   0.533
 1202SOL     OW34099   2.193   4.532   0.481
 1202SOL    HW134100   2.286   4.568   0.486
 1202SOL    HW234101   2.187   4.447   0.533
 1203SOL     OW34102   2.193   6.394   0.481
 1203SOL    HW134103   2.286   6.430   0.486
 1203SOL    HW234104   2.187   6.309   0.533
 1204SOL     OW34105   4.055   0.808   0.481
 1204SOL    HW134106   4.148   0.844   0.486
 1204SOL    HW234107   4.049   0.723   0.533
 1205SOL     OW34108   4.055   2.670   0.481
 1205SOL    HW134109   4.148   2.706   0.486
 1205SOL    HW234110   4.049   2.585   0.533
 1206SOL     OW34111   4.055   4.532   0.481
 1206SOL    HW134112   4.148   4.568   0.486
 1206SOL    HW234113   4.049   4.447   0.533
 1207SOL     OW34114   4.055   6.394   0.481
 1207SOL    HW134115   4.148   6.430   0.486
 1207SOL    HW234116   4.049   6.309   0.533
 1208SOL     OW34117   5.917   0.808   0.481
 1208SOL    HW134118   6.010   0.844   0.486
 1208SOL    HW234119   5.911   0.723   0.533
 1209SOL     OW34120   5.917   2.670   0.481
 1209SOL    HW134121   6.010   2.706   0.486
 1209SOL    HW234122   5.911   2.585   0.533
 1210SOL     OW34123   5.917   4.532   0.481
 1210SOL    HW134124   6.010   4.568   0.486
 1210SOL    HW234125   5.911   4.447   0.533
 1211SOL     OW34126   5.917   6.394   0.481
 1211SOL    HW134127   6.010   6.430   0.486
 1211SOL    HW234128   5.911   6.309   0.533
 1212SOL     OW34129   1.381   0.948  12.364
 1212SOL    HW134130   1.420   1.037  12.384
 1212SOL    HW234131   1.391   0.928  12.267
 1213SOL     OW34132   1.381   2.810  12.364
 1213SOL    HW134133   1.420   2.899  12.384
 1213SOL    HW234134   1.391   2.790  12.267
 1214SOL     OW34135   1.381   4.672  12.364
 1214SOL    HW134136   1.420   4.761  12.384
 1214SOL    HW234137   1.391   4.652  12.267
 1215SOL     OW34138   3.243   0.948  12.364
 1215SOL    HW134139   3.282   1.037  12.384
 1215SOL    HW234140   3.253   0.928  12.267
 1216SOL     OW34141   3.243   2.810  12.364
 1216SOL    HW134142   3.282   2.899  12.384
 1216SOL    HW234143   3.253   2.790  12.267
 1217SOL     OW34144   3.243   4.672  12.364
 1217SOL    HW134145   3.282   4.761  12.384
 1217SOL    HW234146   3.253   4.652  12.267
 1218SOL     OW34147   5.105   0.948  12.364
 1218SOL    HW134148   5.144   1.037  12.384
 1218SOL    HW234149   5.115   0.928  12.267
 1219SOL     OW34150   5.105   2.810  12.364
 1219SOL    HW134151   5.144   2.899  12.384
 1219SOL    HW234152   5.115   2.790  12.267
 1220SOL     OW34153   5.105   4.672  12.364
 1220SOL    HW134154   5.144   4.761  12.384
 1220SOL    HW234155   5.115   4.652  12.267
 1221SOL     OW34156   1.478   1.415   0.485
 1221SOL    HW134157   1.419   1.421   0.565
 1221SOL    HW234158   1.463   1.327   0.439
 1222SOL     OW34159   0.673   1.788   0.485
 1222SOL    HW134160   0.627   1.876   0.472
 1222SOL    HW234161   0.772   1.800   0.478
 1223SOL     OW34162   1.478   3.277   0.485
 1223SOL    HW134163   1.419   3.283   0.565
 1223SOL    HW234164   1.463   3.189   0.439
 1224SOL     OW34165   0.673   3.650   0.485
 1224SOL    HW134166   0.627   3.738   0.472
 1224SOL    HW234167   0.772   3.662   0.478
 1225SOL     OW34168   1.478   5.139   0.485
 1225SOL    HW134169   1.419   5.145   0.565
 1225SOL    HW234170   1.463   5.051   0.439
 1226SOL     OW34171   0.673   5.512   0.485
 1226SOL    HW134172   0.627   5.600   0.472
 1226SOL    HW234173   0.772   5.524   0.478
 1227SOL     OW34174   3.340   1.415   0.485
 1227SOL    HW134175   3.281   1.421   0.565
 1227SOL    HW234176   3.325   1.327   0.439
 1228SOL     OW34177   2.535   1.788   0.485
 1228SOL    HW134178   2.489   1.876   0.472
 1228SOL    HW234179   2.634   1.800   0.478
 1229SOL     OW34180   3.340   3.277   0.485
 1229SOL    HW134181   3.281   3.283   0.565
 1229SOL    HW234182   3.325   3.189   0.439
 1230SOL     OW34183   2.535   3.650   0.485
 1230SOL    HW134184   2.489   3.738   0.472
 1230SOL    HW234185   2.634   3.662   0.478
 1231SOL     OW34186   3.340   5.139   0.485
 1231SOL    HW134187   3.281   5.145   0.565
 1231SOL    HW234188   3.325   5.051   0.439
 1232SOL     OW34189   2.535   5.512   0.485
 1232SOL    HW134190   2.489   5.600   0.472
 1232SOL    HW234191   2.634   5.524   0.478
 1233SOL     OW34192   5.202   1.415   0.485
 1233SOL    HW134193   5.143   1.421   0.565
 1233SOL    HW234194   5.187   1.327   0.439
 1234SOL     OW34195   4.397   1.788   0.485
 1234SOL    HW134196   4.351   1.876   0.472
 1234SOL    HW234197   4.496   1.800   0.478
 1235SOL     OW34198   5.202   3.277   0.485
 1235SOL    HW134199   5.143   3.283   0.565
 1235SOL    HW234200   5.187   3.189   0.439
 1236SOL     OW34201   4.397   3.650   0.485
 1236SOL    HW134202   4.351   3.738   0.472
 1236SOL    HW234203   4.496   3.662   0.478
 1237SOL     OW34204   5.202   5.139   0.485
 1237SOL    HW134205   5.143   5.145   0.565
 1237SOL    HW234206   5.187   5.051   0.439
 1238SOL     OW34207   4.397   5.512   0.485
 1238SOL    HW134208   4.351   5.600   0.472
 1238SOL    HW234209   4.496   5.524   0.478
 1239SOL     OW34210   6.259   1.788   0.485
 1239SOL    HW134211   6.213   1.876   0.472
 1239SOL    HW234212   6.358   1.800   0.478
 1240SOL     OW34213   6.259   3.650   0.485
 1240SOL    HW134214   6.213   3.738   0.472
 1240SOL    HW234215   6.358   3.662   0.478
 1241SOL     OW34216   6.259   5.512   0.485
 1241SOL    HW134217   6.213   5.600   0.472
 1241SOL    HW234218   6.358   5.524   0.478
 1242SOL     OW34219   1.505   1.765   0.491
 1242SOL    HW134220   1.538   1.829   0.422
 1242SOL    HW234221   1.571   1.759   0.566
 1243SOL     OW34222   1.505   3.627   0.491
 1243SOL    HW134223   1.538   3.691   0.422
 1243SOL    HW234224   1.571   3.621   0.566
 1244SOL     OW34225   1.505   5.489   0.491
 1244SOL    HW134226   1.538   5.553   0.422
 1244SOL    HW234227   1.571   5.483   0.566
 1245SOL     OW34228   3.367   1.765   0.491
 1245SOL    HW134229   3.400   1.829   0.422
 1245SOL    HW234230   3.433   1.759   0.566
 1246SOL     OW34231   3.367   3.627   0.491
 1246SOL    HW134232   3.400   3.691   0.422
 1246SOL    HW234233   3.433   3.621   0.566
 1247SOL     OW34234   3.367   5.489   0.491
 1247SOL    HW134235   3.400   5.553   0.422
 1247SOL    HW234236   3.433   5.483   0.566
 1248SOL     OW34237   5.229   1.765   0.491
 1248SOL    HW134238   5.262   1.829   0.422
 1248SOL    HW234239   5.295   1.759   0.566
 1249SOL     OW34240   5.229   3.627   0.491
 1249SOL    HW134241   5.262   3.691   0.422
 1249SOL    HW234242   5.295   3.621   0.566
 1250SOL     OW34243   5.229   5.489   0.491
 1250SOL    HW134244   5.262   5.553   0.422
 1250SOL    HW234245   5.295   5.483   0.566
 1251SOL     OW34246   1.853   0.173   0.495
 1251SOL    HW134247   1.892   0.088   0.459
 1251SOL    HW234248   1.755   0.175   0.476
 1252SOL     OW34249   1.853   2.035   0.495
 1252SOL    HW134250   1.892   1.950   0.459
 1252SOL    HW234251   1.755   2.037   0.476
 1253SOL     OW34252   1.853   3.897   0.495
 1253SOL    HW134253   1.892   3.812   0.459
 1253SOL    HW234254   1.755   3.899   0.476
 1254SOL     OW34255   1.853   5.759   0.495
 1254SOL    HW134256   1.892   5.674   0.459
 1254SOL    HW234257   1.755   5.761   0.476
 1255SOL     OW34258   3.715   0.173   0.495
 1255SOL    HW134259   3.754   0.088   0.459
 1255SOL    HW234260   3.617   0.175   0.476
 1256SOL     OW34261   3.715   2.035   0.495
 1256SOL    HW134262   3.754   1.950   0.459
 1256SOL    HW234263   3.617   2.037   0.476
 1257SOL     OW34264   3.715   3.897   0.495
 1257SOL    HW134265   3.754   3.812   0.459
 1257SOL    HW234266   3.617   3.899   0.476
 1258SOL     OW34267   3.715   5.759   0.495
 1258SOL    HW134268   3.754   5.674   0.459
 1258SOL    HW234269   3.617   5.761   0.476
 1259SOL     OW34270   5.577   0.173   0.495
 1259SOL    HW134271   5.616   0.088   0.459
 1259SOL    HW234272   5.479   0.175   0.476
 1260SOL     OW34273   5.577   2.035   0.495
 1260SOL    HW134274   5.616   1.950   0.459
 1260SOL    HW234275   5.479   2.037   0.476
 1261SOL     OW34276   5.577   3.897   0.495
 1261SOL    HW134277   5.616   3.812   0.459
 1261SOL    HW234278   5.479   3.899   0.476
 1262SOL     OW34279   5.577   5.759   0.495
 1262SOL    HW134280   5.616   5.674   0.459
 1262SOL    HW234281   5.479   5.761   0.476
 1263SOL     OW34282   1.035   0.764   0.498
 1263SOL    HW134283   1.050   0.785   0.594
 1263SOL    HW234284   1.005   0.669   0.489
 1264SOL     OW34285   1.035   2.626   0.498
 1264SOL    HW134286   1.050   2.647   0.594
 1264SOL    HW234287   1.005   2.531   0.489
 1265SOL     OW34288   1.035   4.488   0.498
 1265SOL    HW134289   1.050   4.509   0.594
 1265SOL    HW234290   1.005   4.393   0.489
 1266SOL     OW34291   2.897   0.764   0.498
 1266SOL    HW134292   2.912   0.785   0.594
 1266SOL    HW234293   2.867   0.669   0.489
 1267SOL     OW34294   2.897   2.626   0.498
 1267SOL    HW134295   2.912   2.647   0.594
 1267SOL    HW234296   2.867   2.531   0.489
 1268SOL     OW34297   2.897   4.488   0.498
 1268SOL    HW134298   2.912   4.509   0.594
 1268SOL    HW234299   2.867   4.393   0.489
 1269SOL     OW34300   4.759   0.764   0.498
 1269SOL    HW134301   4.774   0.785   0.594
 1269SOL    HW234302   4.729   0.669   0.489
 1270SOL     OW34303   4.759   2.626   0.498
 1270SOL    HW134304   4.774   2.647   0.594
 1270SOL    HW234305   4.729   2.531   0.489
 1271SOL     OW34306   4.759   4.488   0.498
 1271SOL    HW134307   4.774   4.509   0.594
 1271SOL    HW234308   4.729   4.393   0.489
 1272SOL     OW34309   1.789   0.340  12.346
 1272SOL    HW134310   1.772   0.371  12.252
 1272SOL    HW234311   1.705   0.303  12.384
 1273SOL     OW34312   1.789   2.202  12.346
 1273SOL    HW134313   1.772   2.233  12.252
 1273SOL    HW234314   1.705   2.165  12.384
 1274SOL     OW34315   1.789   4.064  12.346
 1274SOL    HW134316   1.772   4.095  12.252
 1274SOL    HW234317   1.705   4.027  12.384
 1275SOL     OW34318   1.789   5.926  12.346
 1275SOL    HW134319   1.772   5.957  12.252
 1275SOL    HW234320   1.705   5.889  12.384
 1276SOL     OW34321   3.651   0.340  12.346
 1276SOL    HW134322   3.634   0.371  12.252
 1276SOL    HW234323   3.567   0.303  12.384
 1277SOL     OW34324   3.651   2.202  12.346
 1277SOL    HW134325   3.634   2.233  12.252
 1277SOL    HW234326   3.567   2.165  12.384
 1278SOL     OW34327   3.651   4.064  12.346
 1278SOL    HW134328   3.634   4.095  12.252
 1278SOL    HW234329   3.567   4.027  12.384
 1279SOL     OW34330   3.651   5.926  12.346
 1279SOL    HW134331   3.634   5.957  12.252
 1279SOL    HW234332   3.567   5.889  12.384
 1280SOL     OW34333   5.513   0.340  12.346
 1280SOL    HW134334   5.496   0.371  12.252
 1280SOL    HW234335   5.429   0.303  12.384
 1281SOL     OW34336   5.513   2.202  12.346
 1281SOL    HW134337   5.496   2.233  12.252
 1281SOL    HW234338   5.429   2.165  12.384
 1282SOL     OW34339   5.513   4.064  12.346
 1282SOL    HW134340   5.496   4.095  12.252
 1282SOL    HW234341   5.429   4.027  12.384
 1283SOL     OW34342   5.513   5.926  12.346
 1283SOL    HW134343   5.496   5.957  12.252
 1283SOL    HW234344   5.429   5.889  12.384
 1284SOL     OW34345   1.026   0.234   0.503
 1284SOL    HW134346   1.018   0.198   0.410
 1284SOL    HW234347   1.024   0.158   0.568
 1285SOL     OW34348   1.026   2.096   0.503
 1285SOL    HW134349   1.018   2.060   0.410
 1285SOL    HW234350   1.024   2.020   0.568
 1286SOL     OW34351   1.026   3.958   0.503
 1286SOL    HW134352   1.018   3.922   0.410
 1286SOL    HW234353   1.024   3.882   0.568
 1287SOL     OW34354   1.026   5.820   0.503
 1287SOL    HW134355   1.018   5.784   0.410
 1287SOL    HW234356   1.024   5.744   0.568
 1288SOL     OW34357   2.888   0.234   0.503
 1288SOL    HW134358   2.880   0.198   0.410
 1288SOL    HW234359   2.886   0.158   0.568
 1289SOL     OW34360   2.888   2.096   0.503
 1289SOL    HW134361   2.880   2.060   0.410
 1289SOL    HW234362   2.886   2.020   0.568
 1290SOL     OW34363   2.888   3.958   0.503
 1290SOL    HW134364   2.880   3.922   0.410
 1290SOL    HW234365   2.886   3.882   0.568
 1291SOL     OW34366   2.888   5.820   0.503
 1291SOL    HW134367   2.880   5.784   0.410
 1291SOL    HW234368   2.886   5.744   0.568
 1292SOL     OW34369   4.750   0.234   0.503
 1292SOL    HW134370   4.742   0.198   0.410
 1292SOL    HW234371   4.748   0.158   0.568
 1293SOL     OW34372   4.750   2.096   0.503
 1293SOL    HW134373   4.742   2.060   0.410
 1293SOL    HW234374   4.748   2.020   0.568
 1294SOL     OW34375   4.750   3.958   0.503
 1294SOL    HW134376   4.742   3.922   0.410
 1294SOL    HW234377   4.748   3.882   0.568
 1295SOL     OW34378   4.750   5.820   0.503
 1295SOL    HW134379   4.742   5.784   0.410
 1295SOL    HW234380   4.748   5.744   0.568
 1296SOL     OW34381   1.462   1.218  12.337
 1296SOL    HW134382   1.453   1.208  12.436
 1296SOL    HW234383   1.558   1.211  12.311
 1297SOL     OW34384   1.462   3.080  12.337
 1297SOL    HW134385   1.453   3.070  12.436
 1297SOL    HW234386   1.558   3.073  12.311
 1298SOL     OW34387   1.462   4.942  12.337
 1298SOL    HW134388   1.453   4.932  12.436
 1298SOL    HW234389   1.558   4.935  12.311
 1299SOL     OW34390   3.324   1.218  12.337
 1299SOL    HW134391   3.315   1.208  12.436
 1299SOL    HW234392   3.420   1.211  12.311
 1300SOL     OW34393   3.324   3.080  12.337
 1300SOL    HW134394   3.315   3.070  12.436
 1300SOL    HW234395   3.420   3.073  12.311
 1301SOL     OW34396   3.324   4.942  12.337
 1301SOL    HW134397   3.315   4.932  12.436
 1301SOL    HW234398   3.420   4.935  12.311
 1302SOL     OW34399   5.186   1.218  12.337
 1302SOL    HW134400   5.177   1.208  12.436
 1302SOL    HW234401   5.282   1.211  12.311
 1303SOL     OW34402   5.186   3.080  12.337
 1303SOL    HW134403   5.177   3.070  12.436
 1303SOL    HW234404   5.282   3.073  12.311
 1304SOL     OW34405   5.186   4.942  12.337
 1304SOL    HW134406   5.177   4.932  12.436
 1304SOL    HW234407   5.282   4.935  12.311
 1305SOL     OW34408   1.604   1.627  12.329
 1305SOL    HW134409   1.631   1.661  12.239
 1305SOL    HW234410   1.683   1.589  12.375
 1306SOL     OW34411   1.604   3.489  12.329
 1306SOL    HW134412   1.631   3.523  12.239
 1306SOL    HW234413   1.683   3.451  12.375
 1307SOL     OW34414   1.604   5.351  12.329
 1307SOL    HW134415   1.631   5.385  12.239
 1307SOL    HW234416   1.683   5.313  12.375
 1308SOL     OW34417   3.466   1.627  12.329
 1308SOL    HW134418   3.493   1.661  12.239
 1308SOL    HW234419   3.545   1.589  12.375
 1309SOL     OW34420   3.466   3.489  12.329
 1309SOL    HW134421   3.493   3.523  12.239
 1309SOL    HW234422   3.545   3.451  12.375
 1310SOL     OW34423   3.466   5.351  12.329
 1310SOL    HW134424   3.493   5.385  12.239
 1310SOL    HW234425   3.545   5.313  12.375
 1311SOL     OW34426   5.328   1.627  12.329
 1311SOL    HW134427   5.355   1.661  12.239
 1311SOL    HW234428   5.407   1.589  12.375
 1312SOL     OW34429   5.328   3.489  12.329
 1312SOL    HW134430   5.355   3.523  12.239
 1312SOL    HW234431   5.407   3.451  12.375
 1313SOL     OW34432   5.328   5.351  12.329
 1313SOL    HW134433   5.355   5.385  12.239
 1313SOL    HW234434   5.407   5.313  12.375
 1314SOL     OW34435   0.684   1.389  12.328
 1314SOL    HW134436   0.606   1.339  12.366
 1314SOL    HW234437   0.681   1.484  12.359
 1315SOL     OW34438   0.684   3.251  12.328
 1315SOL    HW134439   0.606   3.201  12.366
 1315SOL    HW234440   0.681   3.346  12.359
 1316SOL     OW34441   0.684   5.113  12.328
 1316SOL    HW134442   0.606   5.063  12.366
 1316SOL    HW234443   0.681   5.208  12.359
 1317SOL     OW34444   2.546   1.389  12.328
 1317SOL    HW134445   2.468   1.339  12.366
 1317SOL    HW234446   2.543   1.484  12.359
 1318SOL     OW34447   2.546   3.251  12.328
 1318SOL    HW134448   2.468   3.201  12.366
 1318SOL    HW234449   2.543   3.346  12.359
 1319SOL     OW34450   2.546   5.113  12.328
 1319SOL    HW134451   2.468   5.063  12.366
 1319SOL    HW234452   2.543   5.208  12.359
 1320SOL     OW34453   4.408   1.389  12.328
 1320SOL    HW134454   4.330   1.339  12.366
 1320SOL    HW234455   4.405   1.484  12.359
 1321SOL     OW34456   4.408   3.251  12.328
 1321SOL    HW134457   4.330   3.201  12.366
 1321SOL    HW234458   4.405   3.346  12.359
 1322SOL     OW34459   4.408   5.113  12.328
 1322SOL    HW134460   4.330   5.063  12.366
 1322SOL    HW234461   4.405   5.208  12.359
 1323SOL     OW34462   6.270   1.389  12.328
 1323SOL    HW134463   6.192   1.339  12.366
 1323SOL    HW234464   6.267   1.484  12.359
 1324SOL     OW34465   6.270   3.251  12.328
 1324SOL    HW134466   6.192   3.201  12.366
 1324SOL    HW234467   6.267   3.346  12.359
 1325SOL     OW34468   6.270   5.113  12.328
 1325SOL    HW134469   6.192   5.063  12.366
 1325SOL    HW234470   6.267   5.208  12.359
 1326SOL     OW34471   1.478   0.588   0.524
 1326SOL    HW134472   1.448   0.493   0.531
 1326SOL    HW234473   1.551   0.604   0.590
 1327SOL     OW34474   1.478   2.450   0.524
 1327SOL    HW134475   1.448   2.355   0.531
 1327SOL    HW234476   1.551   2.466   0.590
 1328SOL     OW34477   1.478   4.312   0.524
 1328SOL    HW134478   1.448   4.217   0.531
 1328SOL    HW234479   1.551   4.328   0.590
 1329SOL     OW34480   1.478   6.174   0.524
 1329SOL    HW134481   1.448   6.079   0.531
 1329SOL    HW234482   1.551   6.190   0.590
 1330SOL     OW34483   3.340   0.588   0.524
 1330SOL    HW134484   3.310   0.493   0.531
 1330SOL    HW234485   3.413   0.604   0.590
 1331SOL     OW34486   3.340   2.450   0.524
 1331SOL    HW134487   3.310   2.355   0.531
 1331SOL    HW234488   3.413   2.466   0.590
 1332SOL     OW34489   3.340   4.312   0.524
 1332SOL    HW134490   3.310   4.217   0.531
 1332SOL    HW234491   3.413   4.328   0.590
 1333SOL     OW34492   3.340   6.174   0.524
 1333SOL    HW134493   3.310   6.079   0.531
 1333SOL    HW234494   3.413   6.190   0.590
 1334SOL     OW34495   5.202   0.588   0.524
 1334SOL    HW134496   5.172   0.493   0.531
 1334SOL    HW234497   5.275   0.604   0.590
 1335SOL     OW34498   5.202   2.450   0.524
 1335SOL    HW134499   5.172   2.355   0.531
 1335SOL    HW234500   5.275   2.466   0.590
 1336SOL     OW34501   5.202   4.312   0.524
 1336SOL    HW134502   5.172   4.217   0.531
 1336SOL    HW234503   5.275   4.328   0.590
 1337SOL     OW34504   5.202   6.174   0.524
 1337SOL    HW134505   5.172   6.079   0.531
 1337SOL    HW234506   5.275   6.190   0.590
 1338SOL     OW34507   1.199   1.790  12.320
 1338SOL    HW134508   1.223   1.850  12.244
 1338SOL    HW234509   1.206   1.695  12.290
 1339SOL     OW34510   1.199   3.652  12.320
 1339SOL    HW134511   1.223   3.712  12.244
 1339SOL    HW234512   1.206   3.557  12.290
 1340SOL     OW34513   1.199   5.514  12.320
 1340SOL    HW134514   1.223   5.574  12.244
 1340SOL    HW234515   1.206   5.419  12.290
 1341SOL     OW34516   3.061   1.790  12.320
 1341SOL    HW134517   3.085   1.850  12.244
 1341SOL    HW234518   3.068   1.695  12.290
 1342SOL     OW34519   3.061   3.652  12.320
 1342SOL    HW134520   3.085   3.712  12.244
 1342SOL    HW234521   3.068   3.557  12.290
 1343SOL     OW34522   3.061   5.514  12.320
 1343SOL    HW134523   3.085   5.574  12.244
 1343SOL    HW234524   3.068   5.419  12.290
 1344SOL     OW34525   4.923   1.790  12.320
 1344SOL    HW134526   4.947   1.850  12.244
 1344SOL    HW234527   4.930   1.695  12.290
 1345SOL     OW34528   4.923   3.652  12.320
 1345SOL    HW134529   4.947   3.712  12.244
 1345SOL    HW234530   4.930   3.557  12.290
 1346SOL     OW34531   4.923   5.514  12.320
 1346SOL    HW134532   4.947   5.574  12.244
 1346SOL    HW234533   4.930   5.419  12.290
 1347SOL     OW34534   0.237   0.273   0.528
 1347SOL    HW134535   0.272   0.256   0.620
 1347SOL    HW234536   0.149   0.228   0.516
 1348SOL     OW34537   0.237   2.135   0.528
 1348SOL    HW134538   0.272   2.118   0.620
 1348SOL    HW234539   0.149   2.090   0.516
 1349SOL     OW34540   0.237   3.997   0.528
 1349SOL    HW134541   0.272   3.980   0.620
 1349SOL    HW234542   0.149   3.952   0.516
 1350SOL     OW34543   0.237   5.859   0.528
 1350SOL    HW134544   0.272   5.842   0.620
 1350SOL    HW234545   0.149   5.814   0.516
 1351SOL     OW34546   2.099   0.273   0.528
 1351SOL    HW134547   2.134   0.256   0.620
 1351SOL    HW234548   2.011   0.228   0.516
 1352SOL     OW34549   2.099   2.135   0.528
 1352SOL    HW134550   2.134   2.118   0.620
 1352SOL    HW234551   2.011   2.090   0.516
 1353SOL     OW34552   2.099   3.997   0.528
 1353SOL    HW134553   2.134   3.980   0.620
 1353SOL    HW234554   2.011   3.952   0.516
 1354SOL     OW34555   2.099   5.859   0.528
 1354SOL    HW134556   2.134   5.842   0.620
 1354SOL    HW234557   2.011   5.814   0.516
 1355SOL     OW34558   3.961   0.273   0.528
 1355SOL    HW134559   3.996   0.256   0.620
 1355SOL    HW234560   3.873   0.228   0.516
 1356SOL     OW34561   3.961   2.135   0.528
 1356SOL    HW134562   3.996   2.118   0.620
 1356SOL    HW234563   3.873   2.090   0.516
 1357SOL     OW34564   3.961   3.997   0.528
 1357SOL    HW134565   3.996   3.980   0.620
 1357SOL    HW234566   3.873   3.952   0.516
 1358SOL     OW34567   3.961   5.859   0.528
 1358SOL    HW134568   3.996   5.842   0.620
 1358SOL    HW234569   3.873   5.814   0.516
 1359SOL     OW34570   5.823   0.273   0.528
 1359SOL    HW134571   5.858   0.256   0.620
 1359SOL    HW234572   5.735   0.228   0.516
 1360SOL     OW34573   5.823   2.135   0.528
 1360SOL    HW134574   5.858   2.118   0.620
 1360SOL    HW234575   5.735   2.090   0.516
 1361SOL     OW34576   5.823   3.997   0.528
 1361SOL    HW134577   5.858   3.980   0.620
 1361SOL    HW234578   5.735   3.952   0.516
 1362SOL     OW34579   5.823   5.859   0.528
 1362SOL    HW134580   5.858   5.842   0.620
 1362SOL    HW234581   5.735   5.814   0.516
 1363SOL     OW34582   1.871   1.516  12.309
 1363SOL    HW134583   1.885   1.543  12.214
 1363SOL    HW234584   1.954   1.538  12.362
 1364SOL     OW34585   1.871   3.378  12.309
 1364SOL    HW134586   1.885   3.405  12.214
 1364SOL    HW234587   1.954   3.400  12.362
 1365SOL     OW34588   1.871   5.240  12.309
 1365SOL    HW134589   1.885   5.267  12.214
 1365SOL    HW234590   1.954   5.262  12.362
 1366SOL     OW34591   3.733   1.516  12.309
 1366SOL    HW134592   3.747   1.543  12.214
 1366SOL    HW234593   3.816   1.538  12.362
 1367SOL     OW34594   3.733   3.378  12.309
 1367SOL    HW134595   3.747   3.405  12.214
 1367SOL    HW234596   3.816   3.400  12.362
 1368SOL     OW34597   3.733   5.240  12.309
 1368SOL    HW134598   3.747   5.267  12.214
 1368SOL    HW234599   3.816   5.262  12.362
 1369SOL     OW34600   5.595   1.516  12.309
 1369SOL    HW134601   5.609   1.543  12.214
 1369SOL    HW234602   5.678   1.538  12.362
 1370SOL     OW34603   5.595   3.378  12.309
 1370SOL    HW134604   5.609   3.405  12.214
 1370SOL    HW234605   5.678   3.400  12.362
 1371SOL     OW34606   5.595   5.240  12.309
 1371SOL    HW134607   5.609   5.267  12.214
 1371SOL    HW234608   5.678   5.262  12.362
 1372SOL     OW34609   0.351   0.507   0.538
 1372SOL    HW134610   0.299   0.424   0.521
 1372SOL    HW234611   0.428   0.512   0.474
 1373SOL     OW34612   0.351   2.369   0.538
 1373SOL    HW134613   0.299   2.286   0.521
 1373SOL    HW234614   0.428   2.374   0.474
 1374SOL     OW34615   0.351   4.231   0.538
 1374SOL    HW134616   0.299   4.148   0.521
 1374SOL    HW234617   0.428   4.236   0.474
 1375SOL     OW34618   0.351   6.093   0.538
 1375SOL    HW134619   0.299   6.010   0.521
 1375SOL    HW234620   0.428   6.098   0.474
 1376SOL     OW34621   2.213   0.507   0.538
 1376SOL    HW134622   2.161   0.424   0.521
 1376SOL    HW234623   2.290   0.512   0.474
 1377SOL     OW34624   2.213   2.369   0.538
 1377SOL    HW134625   2.161   2.286   0.521
 1377SOL    HW234626   2.290   2.374   0.474
 1378SOL     OW34627   2.213   4.231   0.538
 1378SOL    HW134628   2.161   4.148   0.521
 1378SOL    HW234629   2.290   4.236   0.474
 1379SOL     OW34630   2.213   6.093   0.538
 1379SOL    HW134631   2.161   6.010   0.521
 1379SOL    HW234632   2.290   6.098   0.474
 1380SOL     OW34633   4.075   0.507   0.538
 1380SOL    HW134634   4.023   0.424   0.521
 1380SOL    HW234635   4.152   0.512   0.474
 1381SOL     OW34636   4.075   2.369   0.538
 1381SOL    HW134637   4.023   2.286   0.521
 1381SOL    HW234638   4.152   2.374   0.474
 1382SOL     OW34639   4.075   4.231   0.538
 1382SOL    HW134640   4.023   4.148   0.521
 1382SOL    HW234641   4.152   4.236   0.474
 1383SOL     OW34642   4.075   6.093   0.538
 1383SOL    HW134643   4.023   6.010   0.521
 1383SOL    HW234644   4.152   6.098   0.474
 1384SOL     OW34645   5.937   0.507   0.538
 1384SOL    HW134646   5.885   0.424   0.521
 1384SOL    HW234647   6.014   0.512   0.474
 1385SOL     OW34648   5.937   2.369   0.538
 1385SOL    HW134649   5.885   2.286   0.521
 1385SOL    HW234650   6.014   2.374   0.474
 1386SOL     OW34651   5.937   4.231   0.538
 1386SOL    HW134652   5.885   4.148   0.521
 1386SOL    HW234653   6.014   4.236   0.474
 1387SOL     OW34654   5.937   6.093   0.538
 1387SOL    HW134655   5.885   6.010   0.521
 1387SOL    HW234656   6.014   6.098   0.474
 1388SOL     OW34657   0.414   0.749  12.302
 1388SOL    HW134658   0.482   0.804  12.255
 1388SOL    HW234659   0.454   0.661  12.329
 1389SOL     OW34660   0.414   2.611  12.302
 1389SOL    HW134661   0.482   2.666  12.255
 1389SOL    HW234662   0.454   2.523  12.329
 1390SOL     OW34663   0.414   4.473  12.302
 1390SOL    HW134664   0.482   4.528  12.255
 1390SOL    HW234665   0.454   4.385  12.329
 1391SOL     OW34666   2.276   0.749  12.302
 1391SOL    HW134667   2.344   0.804  12.255
 1391SOL    HW234668   2.316   0.661  12.329
 1392SOL     OW34669   2.276   2.611  12.302
 1392SOL    HW134670   2.344   2.666  12.255
 1392SOL    HW234671   2.316   2.523  12.329
 1393SOL     OW34672   2.276   4.473  12.302
 1393SOL    HW134673   2.344   4.528  12.255
 1393SOL    HW234674   2.316   4.385  12.329
 1394SOL     OW34675   4.138   0.749  12.302
 1394SOL    HW134676   4.206   0.804  12.255
 1394SOL    HW234677   4.178   0.661  12.329
 1395SOL     OW34678   4.138   2.611  12.302
 1395SOL    HW134679   4.206   2.666  12.255
 1395SOL    HW234680   4.178   2.523  12.329
 1396SOL     OW34681   4.138   4.473  12.302
 1396SOL    HW134682   4.206   4.528  12.255
 1396SOL    HW234683   4.178   4.385  12.329
 1397SOL     OW34684   6.000   0.749  12.302
 1397SOL    HW134685   6.068   0.804  12.255
 1397SOL    HW234686   6.040   0.661  12.329
 1398SOL     OW34687   6.000   2.611  12.302
 1398SOL    HW134688   6.068   2.666  12.255
 1398SOL    HW234689   6.040   2.523  12.329
 1399SOL     OW34690   6.000   4.473  12.302
 1399SOL    HW134691   6.068   4.528  12.255
 1399SOL    HW234692   6.040   4.385  12.329
 1400SOL     OW34693   0.125   0.735  12.301
 1400SOL    HW134694   0.213   0.722  12.346
 1400SOL    HW234695   0.112   0.832  12.279
 1401SOL     OW34696   0.125   2.597  12.301
 1401SOL    HW134697   0.213   2.584  12.346
 1401SOL    HW234698   0.112   2.694  12.279
 1402SOL     OW34699   0.125   4.459  12.301
 1402SOL    HW134700   0.213   4.446  12.346
 1402SOL    HW234701   0.112   4.556  12.279
 1403SOL     OW34702   0.125   6.321  12.301
 1403SOL    HW134703   0.213   6.308  12.346
 1403SOL    HW234704   0.112   6.418  12.279
 1404SOL     OW34705   1.987   0.735  12.301
 1404SOL    HW134706   2.075   0.722  12.346
 1404SOL    HW234707   1.974   0.832  12.279
 1405SOL     OW34708   1.987   2.597  12.301
 1405SOL    HW134709   2.075   2.584  12.346
 1405SOL    HW234710   1.974   2.694  12.279
 1406SOL     OW34711   1.987   4.459  12.301
 1406SOL    HW134712   2.075   4.446  12.346
 1406SOL    HW234713   1.974   4.556  12.279
 1407SOL     OW34714   1.987   6.321  12.301
 1407SOL    HW134715   2.075   6.308  12.346
 1407SOL    HW234716   1.974   6.418  12.279
 1408SOL     OW34717   3.849   0.735  12.301
 1408SOL    HW134718   3.937   0.722  12.346
 1408SOL    HW234719   3.836   0.832  12.279
 1409SOL     OW34720   3.849   2.597  12.301
 1409SOL    HW134721   3.937   2.584  12.346
 1409SOL    HW234722   3.836   2.694  12.279
 1410SOL     OW34723   3.849   4.459  12.301
 1410SOL    HW134724   3.937   4.446  12.346
 1410SOL    HW234725   3.836   4.556  12.279
 1411SOL     OW34726   3.849   6.321  12.301
 1411SOL    HW134727   3.937   6.308  12.346
 1411SOL    HW234728   3.836   6.418  12.279
 1412SOL     OW34729   5.711   0.735  12.301
 1412SOL    HW134730   5.799   0.722  12.346
 1412SOL    HW234731   5.698   0.832  12.279
 1413SOL     OW34732   5.711   2.597  12.301
 1413SOL    HW134733   5.799   2.584  12.346
 1413SOL    HW234734   5.698   2.694  12.279
 1414SOL     OW34735   5.711   4.459  12.301
 1414SOL    HW134736   5.799   4.446  12.346
 1414SOL    HW234737   5.698   4.556  12.279
 1415SOL     OW34738   5.711   6.321  12.301
 1415SOL    HW134739   5.799   6.308  12.346
 1415SOL    HW234740   5.698   6.418  12.279
 1416SOL     OW34741   1.766   1.221  12.292
 1416SOL    HW134742   1.857   1.182  12.279
 1416SOL    HW234743   1.774   1.317  12.316
 1417SOL     OW34744   1.766   3.083  12.292
 1417SOL    HW134745   1.857   3.044  12.279
 1417SOL    HW234746   1.774   3.179  12.316
 1418SOL     OW34747   1.766   4.945  12.292
 1418SOL    HW134748   1.857   4.906  12.279
 1418SOL    HW234749   1.774   5.041  12.316
 1419SOL     OW34750   3.628   1.221  12.292
 1419SOL    HW134751   3.719   1.182  12.279
 1419SOL    HW234752   3.636   1.317  12.316
 1420SOL     OW34753   3.628   3.083  12.292
 1420SOL    HW134754   3.719   3.044  12.279
 1420SOL    HW234755   3.636   3.179  12.316
 1421SOL     OW34756   3.628   4.945  12.292
 1421SOL    HW134757   3.719   4.906  12.279
 1421SOL    HW234758   3.636   5.041  12.316
 1422SOL     OW34759   5.490   1.221  12.292
 1422SOL    HW134760   5.581   1.182  12.279
 1422SOL    HW234761   5.498   1.317  12.316
 1423SOL     OW34762   5.490   3.083  12.292
 1423SOL    HW134763   5.581   3.044  12.279
 1423SOL    HW234764   5.498   3.179  12.316
 1424SOL     OW34765   5.490   4.945  12.292
 1424SOL    HW134766   5.581   4.906  12.279
 1424SOL    HW234767   5.498   5.041  12.316
 1425SOL     OW34768   0.095   1.256   0.554
 1425SOL    HW134769   0.090   1.255   0.654
 1425SOL    HW234770   0.012   1.215   0.516
 1426SOL     OW34771   0.095   3.118   0.554
 1426SOL    HW134772   0.090   3.117   0.654
 1426SOL    HW234773   0.012   3.077   0.516
 1427SOL     OW34774   0.095   4.980   0.554
 1427SOL    HW134775   0.090   4.979   0.654
 1427SOL    HW234776   0.012   4.939   0.516
 1428SOL     OW34777   1.957   1.256   0.554
 1428SOL    HW134778   1.952   1.255   0.654
 1428SOL    HW234779   1.874   1.215   0.516
 1429SOL     OW34780   1.957   3.118   0.554
 1429SOL    HW134781   1.952   3.117   0.654
 1429SOL    HW234782   1.874   3.077   0.516
 1430SOL     OW34783   1.957   4.980   0.554
 1430SOL    HW134784   1.952   4.979   0.654
 1430SOL    HW234785   1.874   4.939   0.516
 1431SOL     OW34786   3.819   1.256   0.554
 1431SOL    HW134787   3.814   1.255   0.654
 1431SOL    HW234788   3.736   1.215   0.516
 1432SOL     OW34789   3.819   3.118   0.554
 1432SOL    HW134790   3.814   3.117   0.654
 1432SOL    HW234791   3.736   3.077   0.516
 1433SOL     OW34792   3.819   4.980   0.554
 1433SOL    HW134793   3.814   4.979   0.654
 1433SOL    HW234794   3.736   4.939   0.516
 1434SOL     OW34795   5.681   1.256   0.554
 1434SOL    HW134796   5.676   1.255   0.654
 1434SOL    HW234797   5.598   1.215   0.516
 1435SOL     OW34798   5.681   3.118   0.554
 1435SOL    HW134799   5.676   3.117   0.654
 1435SOL    HW234800   5.598   3.077   0.516
 1436SOL     OW34801   5.681   4.980   0.554
 1436SOL    HW134802   5.676   4.979   0.654
 1436SOL    HW234803   5.598   4.939   0.516
 1437SOL     OW34804   0.780   1.142   0.555
 1437SOL    HW134805   0.702   1.159   0.615
 1437SOL    HW234806   0.814   1.229   0.519
 1438SOL     OW34807   0.780   3.004   0.555
 1438SOL    HW134808   0.702   3.021   0.615
 1438SOL    HW234809   0.814   3.091   0.519
 1439SOL     OW34810   0.780   4.866   0.555
 1439SOL    HW134811   0.702   4.883   0.615
 1439SOL    HW234812   0.814   4.953   0.519
 1440SOL     OW34813   2.642   1.142   0.555
 1440SOL    HW134814   2.564   1.159   0.615
 1440SOL    HW234815   2.676   1.229   0.519
 1441SOL     OW34816   2.642   3.004   0.555
 1441SOL    HW134817   2.564   3.021   0.615
 1441SOL    HW234818   2.676   3.091   0.519
 1442SOL     OW34819   2.642   4.866   0.555
 1442SOL    HW134820   2.564   4.883   0.615
 1442SOL    HW234821   2.676   4.953   0.519
 1443SOL     OW34822   4.504   1.142   0.555
 1443SOL    HW134823   4.426   1.159   0.615
 1443SOL    HW234824   4.538   1.229   0.519
 1444SOL     OW34825   4.504   3.004   0.555
 1444SOL    HW134826   4.426   3.021   0.615
 1444SOL    HW234827   4.538   3.091   0.519
 1445SOL     OW34828   4.504   4.866   0.555
 1445SOL    HW134829   4.426   4.883   0.615
 1445SOL    HW234830   4.538   4.953   0.519
 1446SOL     OW34831   0.585   0.868   0.561
 1446SOL    HW134832   0.629   0.957   0.552
 1446SOL    HW234833   0.522   0.868   0.638
 1447SOL     OW34834   0.585   2.730   0.561
 1447SOL    HW134835   0.629   2.819   0.552
 1447SOL    HW234836   0.522   2.730   0.638
 1448SOL     OW34837   0.585   4.592   0.561
 1448SOL    HW134838   0.629   4.681   0.552
 1448SOL    HW234839   0.522   4.592   0.638
 1449SOL     OW34840   2.447   0.868   0.561
 1449SOL    HW134841   2.491   0.957   0.552
 1449SOL    HW234842   2.384   0.868   0.638
 1450SOL     OW34843   2.447   2.730   0.561
 1450SOL    HW134844   2.491   2.819   0.552
 1450SOL    HW234845   2.384   2.730   0.638
 1451SOL     OW34846   2.447   4.592   0.561
 1451SOL    HW134847   2.491   4.681   0.552
 1451SOL    HW234848   2.384   4.592   0.638
 1452SOL     OW34849   4.309   0.868   0.561
 1452SOL    HW134850   4.353   0.957   0.552
 1452SOL    HW234851   4.246   0.868   0.638
 1453SOL     OW34852   4.309   2.730   0.561
 1453SOL    HW134853   4.353   2.819   0.552
 1453SOL    HW234854   4.246   2.730   0.638
 1454SOL     OW34855   4.309   4.592   0.561
 1454SOL    HW134856   4.353   4.681   0.552
 1454SOL    HW234857   4.246   4.592   0.638
 1455SOL     OW34858   6.171   0.868   0.561
 1455SOL    HW134859   6.215   0.957   0.552
 1455SOL    HW234860   6.108   0.868   0.638
 1456SOL     OW34861   6.171   2.730   0.561
 1456SOL    HW134862   6.215   2.819   0.552
 1456SOL    HW234863   6.108   2.730   0.638
 1457SOL     OW34864   6.171   4.592   0.561
 1457SOL    HW134865   6.215   4.681   0.552
 1457SOL    HW234866   6.108   4.592   0.638
 1458SOL     OW34867   0.985   0.888  12.276
 1458SOL    HW134868   1.031   0.804  12.247
 1458SOL    HW234869   0.929   0.922  12.201
 1459SOL     OW34870   0.985   2.750  12.276
 1459SOL    HW134871   1.031   2.666  12.247
 1459SOL    HW234872   0.929   2.784  12.201
 1460SOL     OW34873   0.985   4.612  12.276
 1460SOL    HW134874   1.031   4.528  12.247
 1460SOL    HW234875   0.929   4.646  12.201
 1461SOL     OW34876   2.847   0.888  12.276
 1461SOL    HW134877   2.893   0.804  12.247
 1461SOL    HW234878   2.791   0.922  12.201
 1462SOL     OW34879   2.847   2.750  12.276
 1462SOL    HW134880   2.893   2.666  12.247
 1462SOL    HW234881   2.791   2.784  12.201
 1463SOL     OW34882   2.847   4.612  12.276
 1463SOL    HW134883   2.893   4.528  12.247
 1463SOL    HW234884   2.791   4.646  12.201
 1464SOL     OW34885   4.709   0.888  12.276
 1464SOL    HW134886   4.755   0.804  12.247
 1464SOL    HW234887   4.653   0.922  12.201
 1465SOL     OW34888   4.709   2.750  12.276
 1465SOL    HW134889   4.755   2.666  12.247
 1465SOL    HW234890   4.653   2.784  12.201
 1466SOL     OW34891   4.709   4.612  12.276
 1466SOL    HW134892   4.755   4.528  12.247
 1466SOL    HW234893   4.653   4.646  12.201
 1467SOL     OW34894   0.142   1.819  12.275
 1467SOL    HW134895   0.132   1.804  12.374
 1467SOL    HW234896   0.056   1.855  12.239
 1468SOL     OW34897   0.142   3.681  12.275
 1468SOL    HW134898   0.132   3.666  12.374
 1468SOL    HW234899   0.056   3.717  12.239
 1469SOL     OW34900   0.142   5.543  12.275
 1469SOL    HW134901   0.132   5.528  12.374
 1469SOL    HW234902   0.056   5.579  12.239
 1470SOL     OW34903   2.004   1.819  12.275
 1470SOL    HW134904   1.994   1.804  12.374
 1470SOL    HW234905   1.918   1.855  12.239
 1471SOL     OW34906   2.004   3.681  12.275
 1471SOL    HW134907   1.994   3.666  12.374
 1471SOL    HW234908   1.918   3.717  12.239
 1472SOL     OW34909   2.004   5.543  12.275
 1472SOL    HW134910   1.994   5.528  12.374
 1472SOL    HW234911   1.918   5.579  12.239
 1473SOL     OW34912   3.866   1.819  12.275
 1473SOL    HW134913   3.856   1.804  12.374
 1473SOL    HW234914   3.780   1.855  12.239
 1474SOL     OW34915   3.866   3.681  12.275
 1474SOL    HW134916   3.856   3.666  12.374
 1474SOL    HW234917   3.780   3.717  12.239
 1475SOL     OW34918   3.866   5.543  12.275
 1475SOL    HW134919   3.856   5.528  12.374
 1475SOL    HW234920   3.780   5.579  12.239
 1476SOL     OW34921   5.728   1.819  12.275
 1476SOL    HW134922   5.718   1.804  12.374
 1476SOL    HW234923   5.642   1.855  12.239
 1477SOL     OW34924   5.728   3.681  12.275
 1477SOL    HW134925   5.718   3.666  12.374
 1477SOL    HW234926   5.642   3.717  12.239
 1478SOL     OW34927   5.728   5.543  12.275
 1478SOL    HW134928   5.718   5.528  12.374
 1478SOL    HW234929   5.642   5.579  12.239
 1479SOL     OW34930   1.372   0.860   0.577
 1479SOL    HW134931   1.297   0.860   0.511
 1479SOL    HW234932   1.409   0.768   0.586
 1480SOL     OW34933   1.372   2.722   0.577
 1480SOL    HW134934   1.297   2.722   0.511
 1480SOL    HW234935   1.409   2.630   0.586
 1481SOL     OW34936   1.372   4.584   0.577
 1481SOL    HW134937   1.297   4.584   0.511
 1481SOL    HW234938   1.409   4.492   0.586
 1482SOL     OW34939   1.372   6.446   0.577
 1482SOL    HW134940   1.297   6.446   0.511
 1482SOL    HW234941   1.409   6.354   0.586
 1483SOL     OW34942   3.234   0.860   0.577
 1483SOL    HW134943   3.159   0.860   0.511
 1483SOL    HW234944   3.271   0.768   0.586
 1484SOL     OW34945   3.234   2.722   0.577
 1484SOL    HW134946   3.159   2.722   0.511
 1484SOL    HW234947   3.271   2.630   0.586
 1485SOL     OW34948   3.234   4.584   0.577
 1485SOL    HW134949   3.159   4.584   0.511
 1485SOL    HW234950   3.271   4.492   0.586
 1486SOL     OW34951   3.234   6.446   0.577
 1486SOL    HW134952   3.159   6.446   0.511
 1486SOL    HW234953   3.271   6.354   0.586
 1487SOL     OW34954   5.096   0.860   0.577
 1487SOL    HW134955   5.021   0.860   0.511
 1487SOL    HW234956   5.133   0.768   0.586
 1488SOL     OW34957   5.096   2.722   0.577
 1488SOL    HW134958   5.021   2.722   0.511
 1488SOL    HW234959   5.133   2.630   0.586
 1489SOL     OW34960   5.096   4.584   0.577
 1489SOL    HW134961   5.021   4.584   0.511
 1489SOL    HW234962   5.133   4.492   0.586
 1490SOL     OW34963   5.096   6.446   0.577
 1490SOL    HW134964   5.021   6.446   0.511
 1490SOL    HW234965   5.133   6.354   0.586
 1491SOL     OW34966   0.402   1.739  12.264
 1491SOL    HW134967   0.311   1.780  12.262
 1491SOL    HW234968   0.395   1.645  12.296
 1492SOL     OW34969   0.402   3.601  12.264
 1492SOL    HW134970   0.311   3.642  12.262
 1492SOL    HW234971   0.395   3.507  12.296
 1493SOL     OW34972   0.402   5.463  12.264
 1493SOL    HW134973   0.311   5.504  12.262
 1493SOL    HW234974   0.395   5.369  12.296
 1494SOL     OW34975   2.264   1.739  12.264
 1494SOL    HW134976   2.173   1.780  12.262
 1494SOL    HW234977   2.257   1.645  12.296
 1495SOL     OW34978   2.264   3.601  12.264
 1495SOL    HW134979   2.173   3.642  12.262
 1495SOL    HW234980   2.257   3.507  12.296
 1496SOL     OW34981   2.264   5.463  12.264
 1496SOL    HW134982   2.173   5.504  12.262
 1496SOL    HW234983   2.257   5.369  12.296
 1497SOL     OW34984   4.126   1.739  12.264
 1497SOL    HW134985   4.035   1.780  12.262
 1497SOL    HW234986   4.119   1.645  12.296
 1498SOL     OW34987   4.126   3.601  12.264
 1498SOL    HW134988   4.035   3.642  12.262
 1498SOL    HW234989   4.119   3.507  12.296
 1499SOL     OW34990   4.126   5.463  12.264
 1499SOL    HW134991   4.035   5.504  12.262
 1499SOL    HW234992   4.119   5.369  12.296
 1500SOL     OW34993   5.988   1.739  12.264
 1500SOL    HW134994   5.897   1.780  12.262
 1500SOL    HW234995   5.981   1.645  12.296
 1501SOL     OW34996   5.988   3.601  12.264
 1501SOL    HW134997   5.897   3.642  12.262
 1501SOL    HW234998   5.981   3.507  12.296
 1502SOL     OW34999   5.988   5.463  12.264
 1502SOL    HW135000   5.897   5.504  12.262
 1502SOL    HW235001   5.981   5.369  12.296
 1503SOL     OW35002   0.347   1.433   0.593
 1503SOL    HW135003   0.269   1.402   0.540
 1503SOL    HW235004   0.405   1.491   0.536
 1504SOL     OW35005   0.347   3.295   0.593
 1504SOL    HW135006   0.269   3.264   0.540
 1504SOL    HW235007   0.405   3.353   0.536
 1505SOL     OW35008   0.347   5.157   0.593
 1505SOL    HW135009   0.269   5.126   0.540
 1505SOL    HW235010   0.405   5.215   0.536
 1506SOL     OW35011   2.209   1.433   0.593
 1506SOL    HW135012   2.131   1.402   0.540
 1506SOL    HW235013   2.267   1.491   0.536
 1507SOL     OW35014   2.209   3.295   0.593
 1507SOL    HW135015   2.131   3.264   0.540
 1507SOL    HW235016   2.267   3.353   0.536
 1508SOL     OW35017   2.209   5.157   0.593
 1508SOL    HW135018   2.131   5.126   0.540
 1508SOL    HW235019   2.267   5.215   0.536
 1509SOL     OW35020   4.071   1.433   0.593
 1509SOL    HW135021   3.993   1.402   0.540
 1509SOL    HW235022   4.129   1.491   0.536
 1510SOL     OW35023   4.071   3.295   0.593
 1510SOL    HW135024   3.993   3.264   0.540
 1510SOL    HW235025   4.129   3.353   0.536
 1511SOL     OW35026   4.071   5.157   0.593
 1511SOL    HW135027   3.993   5.126   0.540
 1511SOL    HW235028   4.129   5.215   0.536
 1512SOL     OW35029   5.933   1.433   0.593
 1512SOL    HW135030   5.855   1.402   0.540
 1512SOL    HW235031   5.991   1.491   0.536
 1513SOL     OW35032   5.933   3.295   0.593
 1513SOL    HW135033   5.855   3.264   0.540
 1513SOL    HW235034   5.991   3.353   0.536
 1514SOL     OW35035   5.933   5.157   0.593
 1514SOL    HW135036   5.855   5.126   0.540
 1514SOL    HW235037   5.991   5.215   0.536
 1515SOL     OW35038   0.744   0.632   0.596
 1515SOL    HW135039   0.803   0.606   0.520
 1515SOL    HW235040   0.716   0.728   0.585
 1516SOL     OW35041   0.744   2.494   0.596
 1516SOL    HW135042   0.803   2.468   0.520
 1516SOL    HW235043   0.716   2.590   0.585
 1517SOL     OW35044   0.744   4.356   0.596
 1517SOL    HW135045   0.803   4.330   0.520
 1517SOL    HW235046   0.716   4.452   0.585
 1518SOL     OW35047   0.744   6.218   0.596
 1518SOL    HW135048   0.803   6.192   0.520
 1518SOL    HW235049   0.716   6.314   0.585
 1519SOL     OW35050   2.606   0.632   0.596
 1519SOL    HW135051   2.665   0.606   0.520
 1519SOL    HW235052   2.578   0.728   0.585
 1520SOL     OW35053   2.606   2.494   0.596
 1520SOL    HW135054   2.665   2.468   0.520
 1520SOL    HW235055   2.578   2.590   0.585
 1521SOL     OW35056   2.606   4.356   0.596
 1521SOL    HW135057   2.665   4.330   0.520
 1521SOL    HW235058   2.578   4.452   0.585
 1522SOL     OW35059   2.606   6.218   0.596
 1522SOL    HW135060   2.665   6.192   0.520
 1522SOL    HW235061   2.578   6.314   0.585
 1523SOL     OW35062   4.468   0.632   0.596
 1523SOL    HW135063   4.527   0.606   0.520
 1523SOL    HW235064   4.440   0.728   0.585
 1524SOL     OW35065   4.468   2.494   0.596
 1524SOL    HW135066   4.527   2.468   0.520
 1524SOL    HW235067   4.440   2.590   0.585
 1525SOL     OW35068   4.468   4.356   0.596
 1525SOL    HW135069   4.527   4.330   0.520
 1525SOL    HW235070   4.440   4.452   0.585
 1526SOL     OW35071   4.468   6.218   0.596
 1526SOL    HW135072   4.527   6.192   0.520
 1526SOL    HW235073   4.440   6.314   0.585
 1527SOL     OW35074   6.330   0.632   0.596
 1527SOL    HW135075   6.389   0.606   0.520
 1527SOL    HW235076   6.302   0.728   0.585
 1528SOL     OW35077   6.330   2.494   0.596
 1528SOL    HW135078   6.389   2.468   0.520
 1528SOL    HW235079   6.302   2.590   0.585
 1529SOL     OW35080   6.330   4.356   0.596
 1529SOL    HW135081   6.389   4.330   0.520
 1529SOL    HW235082   6.302   4.452   0.585
 1530SOL     OW35083   6.330   6.218   0.596
 1530SOL    HW135084   6.389   6.192   0.520
 1530SOL    HW235085   6.302   6.314   0.585
 1531SOL     OW35086   1.650   1.097   0.611
 1531SOL    HW135087   1.655   1.178   0.670
 1531SOL    HW235088   1.564   1.099   0.560
 1532SOL     OW35089   1.650   2.959   0.611
 1532SOL    HW135090   1.655   3.040   0.670
 1532SOL    HW235091   1.564   2.961   0.560
 1533SOL     OW35092   1.650   4.821   0.611
 1533SOL    HW135093   1.655   4.902   0.670
 1533SOL    HW235094   1.564   4.823   0.560
 1534SOL     OW35095   3.512   1.097   0.611
 1534SOL    HW135096   3.517   1.178   0.670
 1534SOL    HW235097   3.426   1.099   0.560
 1535SOL     OW35098   3.512   2.959   0.611
 1535SOL    HW135099   3.517   3.040   0.670
 1535SOL    HW235100   3.426   2.961   0.560
 1536SOL     OW35101   3.512   4.821   0.611
 1536SOL    HW135102   3.517   4.902   0.670
 1536SOL    HW235103   3.426   4.823   0.560
 1537SOL     OW35104   5.374   1.097   0.611
 1537SOL    HW135105   5.379   1.178   0.670
 1537SOL    HW235106   5.288   1.099   0.560
 1538SOL     OW35107   5.374   2.959   0.611
 1538SOL    HW135108   5.379   3.040   0.670
 1538SOL    HW235109   5.288   2.961   0.560
 1539SOL     OW35110   5.374   4.821   0.611
 1539SOL    HW135111   5.379   4.902   0.670
 1539SOL    HW235112   5.288   4.823   0.560
 1540SOL     OW35113   1.742   0.932  12.221
 1540SOL    HW135114   1.780   1.023  12.236
 1540SOL    HW235115   1.734   0.915  12.122
 1541SOL     OW35116   1.742   2.794  12.221
 1541SOL    HW135117   1.780   2.885  12.236
 1541SOL    HW235118   1.734   2.777  12.122
 1542SOL     OW35119   1.742   4.656  12.221
 1542SOL    HW135120   1.780   4.747  12.236
 1542SOL    HW235121   1.734   4.639  12.122
 1543SOL     OW35122   3.604   0.932  12.221
 1543SOL    HW135123   3.642   1.023  12.236
 1543SOL    HW235124   3.596   0.915  12.122
 1544SOL     OW35125   3.604   2.794  12.221
 1544SOL    HW135126   3.642   2.885  12.236
 1544SOL    HW235127   3.596   2.777  12.122
 1545SOL     OW35128   3.604   4.656  12.221
 1545SOL    HW135129   3.642   4.747  12.236
 1545SOL    HW235130   3.596   4.639  12.122
 1546SOL     OW35131   5.466   0.932  12.221
 1546SOL    HW135132   5.504   1.023  12.236
 1546SOL    HW235133   5.458   0.915  12.122
 1547SOL     OW35134   5.466   2.794  12.221
 1547SOL    HW135135   5.504   2.885  12.236
 1547SOL    HW235136   5.458   2.777  12.122
 1548SOL     OW35137   5.466   4.656  12.221
 1548SOL    HW135138   5.504   4.747  12.236
 1548SOL    HW235139   5.458   4.639  12.122
 1549SOL     OW35140   1.123   1.193   0.632
 1549SOL    HW135141   1.083   1.237   0.713
 1549SOL    HW235142   1.082   1.230   0.549
 1550SOL     OW35143   1.123   3.055   0.632
 1550SOL    HW135144   1.083   3.099   0.713
 1550SOL    HW235145   1.082   3.092   0.549
 1551SOL     OW35146   1.123   4.917   0.632
 1551SOL    HW135147   1.083   4.961   0.713
 1551SOL    HW235148   1.082   4.954   0.549
 1552SOL     OW35149   2.985   1.193   0.632
 1552SOL    HW135150   2.945   1.237   0.713
 1552SOL    HW235151   2.944   1.230   0.549
 1553SOL     OW35152   2.985   3.055   0.632
 1553SOL    HW135153   2.945   3.099   0.713
 1553SOL    HW235154   2.944   3.092   0.549
 1554SOL     OW35155   2.985   4.917   0.632
 1554SOL    HW135156   2.945   4.961   0.713
 1554SOL    HW235157   2.944   4.954   0.549
 1555SOL     OW35158   4.847   1.193   0.632
 1555SOL    HW135159   4.807   1.237   0.713
 1555SOL    HW235160   4.806   1.230   0.549
 1556SOL     OW35161   4.847   3.055   0.632
 1556SOL    HW135162   4.807   3.099   0.713
 1556SOL    HW235163   4.806   3.092   0.549
 1557SOL     OW35164   4.847   4.917   0.632
 1557SOL    HW135165   4.807   4.961   0.713
 1557SOL    HW235166   4.806   4.954   0.549
 1558SOL     OW35167   1.239   1.548  12.210
 1558SOL    HW135168   1.245   1.471  12.274
 1558SOL    HW235169   1.187   1.522  12.130
 1559SOL     OW35170   1.239   3.410  12.210
 1559SOL    HW135171   1.245   3.333  12.274
 1559SOL    HW235172   1.187   3.384  12.130
 1560SOL     OW35173   1.239   5.272  12.210
 1560SOL    HW135174   1.245   5.195  12.274
 1560SOL    HW235175   1.187   5.246  12.130
 1561SOL     OW35176   3.101   1.548  12.210
 1561SOL    HW135177   3.107   1.471  12.274
 1561SOL    HW235178   3.049   1.522  12.130
 1562SOL     OW35179   3.101   3.410  12.210
 1562SOL    HW135180   3.107   3.333  12.274
 1562SOL    HW235181   3.049   3.384  12.130
 1563SOL     OW35182   3.101   5.272  12.210
 1563SOL    HW135183   3.107   5.195  12.274
 1563SOL    HW235184   3.049   5.246  12.130
 1564SOL     OW35185   4.963   1.548  12.210
 1564SOL    HW135186   4.969   1.471  12.274
 1564SOL    HW235187   4.911   1.522  12.130
 1565SOL     OW35188   4.963   3.410  12.210
 1565SOL    HW135189   4.969   3.333  12.274
 1565SOL    HW235190   4.911   3.384  12.130
 1566SOL     OW35191   4.963   5.272  12.210
 1566SOL    HW135192   4.969   5.195  12.274
 1566SOL    HW235193   4.911   5.246  12.130
 1567SOL     OW35194   1.717   1.485   0.636
 1567SOL    HW135195   1.624   1.460   0.609
 1567SOL    HW235196   1.743   1.435   0.718
 1568SOL     OW35197   1.717   3.347   0.636
 1568SOL    HW135198   1.624   3.322   0.609
 1568SOL    HW235199   1.743   3.297   0.718
 1569SOL     OW35200   1.717   5.209   0.636
 1569SOL    HW135201   1.624   5.184   0.609
 1569SOL    HW235202   1.743   5.159   0.718
 1570SOL     OW35203   3.579   1.485   0.636
 1570SOL    HW135204   3.486   1.460   0.609
 1570SOL    HW235205   3.605   1.435   0.718
 1571SOL     OW35206   3.579   3.347   0.636
 1571SOL    HW135207   3.486   3.322   0.609
 1571SOL    HW235208   3.605   3.297   0.718
 1572SOL     OW35209   3.579   5.209   0.636
 1572SOL    HW135210   3.486   5.184   0.609
 1572SOL    HW235211   3.605   5.159   0.718
 1573SOL     OW35212   5.441   1.485   0.636
 1573SOL    HW135213   5.348   1.460   0.609
 1573SOL    HW235214   5.467   1.435   0.718
 1574SOL     OW35215   5.441   3.347   0.636
 1574SOL    HW135216   5.348   3.322   0.609
 1574SOL    HW235217   5.467   3.297   0.718
 1575SOL     OW35218   5.441   5.209   0.636
 1575SOL    HW135219   5.348   5.184   0.609
 1575SOL    HW235220   5.467   5.159   0.718
 1576SOL     OW35221   0.450   0.390  12.203
 1576SOL    HW135222   0.532   0.334  12.212
 1576SOL    HW235223   0.369   0.332  12.207
 1577SOL     OW35224   0.450   2.252  12.203
 1577SOL    HW135225   0.532   2.196  12.212
 1577SOL    HW235226   0.369   2.194  12.207
 1578SOL     OW35227   0.450   4.114  12.203
 1578SOL    HW135228   0.532   4.058  12.212
 1578SOL    HW235229   0.369   4.056  12.207
 1579SOL     OW35230   0.450   5.976  12.203
 1579SOL    HW135231   0.532   5.920  12.212
 1579SOL    HW235232   0.369   5.918  12.207
 1580SOL     OW35233   2.312   0.390  12.203
 1580SOL    HW135234   2.394   0.334  12.212
 1580SOL    HW235235   2.231   0.332  12.207
 1581SOL     OW35236   2.312   2.252  12.203
 1581SOL    HW135237   2.394   2.196  12.212
 1581SOL    HW235238   2.231   2.194  12.207
 1582SOL     OW35239   2.312   4.114  12.203
 1582SOL    HW135240   2.394   4.058  12.212
 1582SOL    HW235241   2.231   4.056  12.207
 1583SOL     OW35242   2.312   5.976  12.203
 1583SOL    HW135243   2.394   5.920  12.212
 1583SOL    HW235244   2.231   5.918  12.207
 1584SOL     OW35245   4.174   0.390  12.203
 1584SOL    HW135246   4.256   0.334  12.212
 1584SOL    HW235247   4.093   0.332  12.207
 1585SOL     OW35248   4.174   2.252  12.203
 1585SOL    HW135249   4.256   2.196  12.212
 1585SOL    HW235250   4.093   2.194  12.207
 1586SOL     OW35251   4.174   4.114  12.203
 1586SOL    HW135252   4.256   4.058  12.212
 1586SOL    HW235253   4.093   4.056  12.207
 1587SOL     OW35254   4.174   5.976  12.203
 1587SOL    HW135255   4.256   5.920  12.212
 1587SOL    HW235256   4.093   5.918  12.207
 1588SOL     OW35257   6.036   0.390  12.203
 1588SOL    HW135258   6.118   0.334  12.212
 1588SOL    HW235259   5.955   0.332  12.207
 1589SOL     OW35260   6.036   2.252  12.203
 1589SOL    HW135261   6.118   2.196  12.212
 1589SOL    HW235262   5.955   2.194  12.207
 1590SOL     OW35263   6.036   4.114  12.203
 1590SOL    HW135264   6.118   4.058  12.212
 1590SOL    HW235265   5.955   4.056  12.207
 1591SOL     OW35266   6.036   5.976  12.203
 1591SOL    HW135267   6.118   5.920  12.212
 1591SOL    HW235268   5.955   5.918  12.207
 1592SOL     OW35269   0.214   0.283  12.202
 1592SOL    HW135270   0.134   0.343  12.189
 1592SOL    HW235271   0.204   0.234  12.288
 1593SOL     OW35272   0.214   2.145  12.202
 1593SOL    HW135273   0.134   2.205  12.189
 1593SOL    HW235274   0.204   2.096  12.288
 1594SOL     OW35275   0.214   4.007  12.202
 1594SOL    HW135276   0.134   4.067  12.189
 1594SOL    HW235277   0.204   3.958  12.288
 1595SOL     OW35278   0.214   5.869  12.202
 1595SOL    HW135279   0.134   5.929  12.189
 1595SOL    HW235280   0.204   5.820  12.288
 1596SOL     OW35281   2.076   0.283  12.202
 1596SOL    HW135282   1.996   0.343  12.189
 1596SOL    HW235283   2.066   0.234  12.288
 1597SOL     OW35284   2.076   2.145  12.202
 1597SOL    HW135285   1.996   2.205  12.189
 1597SOL    HW235286   2.066   2.096  12.288
 1598SOL     OW35287   2.076   4.007  12.202
 1598SOL    HW135288   1.996   4.067  12.189
 1598SOL    HW235289   2.066   3.958  12.288
 1599SOL     OW35290   2.076   5.869  12.202
 1599SOL    HW135291   1.996   5.929  12.189
 1599SOL    HW235292   2.066   5.820  12.288
 1600SOL     OW35293   3.938   0.283  12.202
 1600SOL    HW135294   3.858   0.343  12.189
 1600SOL    HW235295   3.928   0.234  12.288
 1601SOL     OW35296   3.938   2.145  12.202
 1601SOL    HW135297   3.858   2.205  12.189
 1601SOL    HW235298   3.928   2.096  12.288
 1602SOL     OW35299   3.938   4.007  12.202
 1602SOL    HW135300   3.858   4.067  12.189
 1602SOL    HW235301   3.928   3.958  12.288
 1603SOL     OW35302   3.938   5.869  12.202
 1603SOL    HW135303   3.858   5.929  12.189
 1603SOL    HW235304   3.928   5.820  12.288
 1604SOL     OW35305   5.800   0.283  12.202
 1604SOL    HW135306   5.720   0.343  12.189
 1604SOL    HW235307   5.790   0.234  12.288
 1605SOL     OW35308   5.800   2.145  12.202
 1605SOL    HW135309   5.720   2.205  12.189
 1605SOL    HW235310   5.790   2.096  12.288
 1606SOL     OW35311   5.800   4.007  12.202
 1606SOL    HW135312   5.720   4.067  12.189
 1606SOL    HW235313   5.790   3.958  12.288
 1607SOL     OW35314   5.800   5.869  12.202
 1607SOL    HW135315   5.720   5.929  12.189
 1607SOL    HW235316   5.790   5.820  12.288
 1608SOL     OW35317   1.436   0.212   0.644
 1608SOL    HW135318   1.488   0.147   0.699
 1608SOL    HW235319   1.387   0.275   0.705
 1609SOL     OW35320   1.436   2.074   0.644
 1609SOL    HW135321   1.488   2.009   0.699
 1609SOL    HW235322   1.387   2.137   0.705
 1610SOL     OW35323   1.436   3.936   0.644
 1610SOL    HW135324   1.488   3.871   0.699
 1610SOL    HW235325   1.387   3.999   0.705
 1611SOL     OW35326   1.436   5.798   0.644
 1611SOL    HW135327   1.488   5.733   0.699
 1611SOL    HW235328   1.387   5.861   0.705
 1612SOL     OW35329   3.298   0.212   0.644
 1612SOL    HW135330   3.350   0.147   0.699
 1612SOL    HW235331   3.249   0.275   0.705
 1613SOL     OW35332   3.298   2.074   0.644
 1613SOL    HW135333   3.350   2.009   0.699
 1613SOL    HW235334   3.249   2.137   0.705
 1614SOL     OW35335   3.298   3.936   0.644
 1614SOL    HW135336   3.350   3.871   0.699
 1614SOL    HW235337   3.249   3.999   0.705
 1615SOL     OW35338   3.298   5.798   0.644
 1615SOL    HW135339   3.350   5.733   0.699
 1615SOL    HW235340   3.249   5.861   0.705
 1616SOL     OW35341   5.160   0.212   0.644
 1616SOL    HW135342   5.212   0.147   0.699
 1616SOL    HW235343   5.111   0.275   0.705
 1617SOL     OW35344   5.160   2.074   0.644
 1617SOL    HW135345   5.212   2.009   0.699
 1617SOL    HW235346   5.111   2.137   0.705
 1618SOL     OW35347   5.160   3.936   0.644
 1618SOL    HW135348   5.212   3.871   0.699
 1618SOL    HW235349   5.111   3.999   0.705
 1619SOL     OW35350   5.160   5.798   0.644
 1619SOL    HW135351   5.212   5.733   0.699
 1619SOL    HW235352   5.111   5.861   0.705
 1620SOL     OW35353   0.052   0.542   0.646
 1620SOL    HW135354   0.137   0.509   0.605
 1620SOL    HW235355   0.065   0.557   0.744
 1621SOL     OW35356   0.052   2.404   0.646
 1621SOL    HW135357   0.137   2.371   0.605
 1621SOL    HW235358   0.065   2.419   0.744
 1622SOL     OW35359   0.052   4.266   0.646
 1622SOL    HW135360   0.137   4.233   0.605
 1622SOL    HW235361   0.065   4.281   0.744
 1623SOL     OW35362   0.052   6.128   0.646
 1623SOL    HW135363   0.137   6.095   0.605
 1623SOL    HW235364   0.065   6.143   0.744
 1624SOL     OW35365   1.914   0.542   0.646
 1624SOL    HW135366   1.999   0.509   0.605
 1624SOL    HW235367   1.927   0.557   0.744
 1625SOL     OW35368   1.914   2.404   0.646
 1625SOL    HW135369   1.999   2.371   0.605
 1625SOL    HW235370   1.927   2.419   0.744
 1626SOL     OW35371   1.914   4.266   0.646
 1626SOL    HW135372   1.999   4.233   0.605
 1626SOL    HW235373   1.927   4.281   0.744
 1627SOL     OW35374   1.914   6.128   0.646
 1627SOL    HW135375   1.999   6.095   0.605
 1627SOL    HW235376   1.927   6.143   0.744
 1628SOL     OW35377   3.776   0.542   0.646
 1628SOL    HW135378   3.861   0.509   0.605
 1628SOL    HW235379   3.789   0.557   0.744
 1629SOL     OW35380   3.776   2.404   0.646
 1629SOL    HW135381   3.861   2.371   0.605
 1629SOL    HW235382   3.789   2.419   0.744
 1630SOL     OW35383   3.776   4.266   0.646
 1630SOL    HW135384   3.861   4.233   0.605
 1630SOL    HW235385   3.789   4.281   0.744
 1631SOL     OW35386   3.776   6.128   0.646
 1631SOL    HW135387   3.861   6.095   0.605
 1631SOL    HW235388   3.789   6.143   0.744
 1632SOL     OW35389   5.638   0.542   0.646
 1632SOL    HW135390   5.723   0.509   0.605
 1632SOL    HW235391   5.651   0.557   0.744
 1633SOL     OW35392   5.638   2.404   0.646
 1633SOL    HW135393   5.723   2.371   0.605
 1633SOL    HW235394   5.651   2.419   0.744
 1634SOL     OW35395   5.638   4.266   0.646
 1634SOL    HW135396   5.723   4.233   0.605
 1634SOL    HW235397   5.651   4.281   0.744
 1635SOL     OW35398   5.638   6.128   0.646
 1635SOL    HW135399   5.723   6.095   0.605
 1635SOL    HW235400   5.651   6.143   0.744
 1636SOL     OW35401   0.384   1.286  12.194
 1636SOL    HW135402   0.371   1.379  12.160
 1636SOL    HW235403   0.300   1.234  12.181
 1637SOL     OW35404   0.384   3.148  12.194
 1637SOL    HW135405   0.371   3.241  12.160
 1637SOL    HW235406   0.300   3.096  12.181
 1638SOL     OW35407   0.384   5.010  12.194
 1638SOL    HW135408   0.371   5.103  12.160
 1638SOL    HW235409   0.300   4.958  12.181
 1639SOL     OW35410   2.246   1.286  12.194
 1639SOL    HW135411   2.233   1.379  12.160
 1639SOL    HW235412   2.162   1.234  12.181
 1640SOL     OW35413   2.246   3.148  12.194
 1640SOL    HW135414   2.233   3.241  12.160
 1640SOL    HW235415   2.162   3.096  12.181
 1641SOL     OW35416   2.246   5.010  12.194
 1641SOL    HW135417   2.233   5.103  12.160
 1641SOL    HW235418   2.162   4.958  12.181
 1642SOL     OW35419   4.108   1.286  12.194
 1642SOL    HW135420   4.095   1.379  12.160
 1642SOL    HW235421   4.024   1.234  12.181
 1643SOL     OW35422   4.108   3.148  12.194
 1643SOL    HW135423   4.095   3.241  12.160
 1643SOL    HW235424   4.024   3.096  12.181
 1644SOL     OW35425   4.108   5.010  12.194
 1644SOL    HW135426   4.095   5.103  12.160
 1644SOL    HW235427   4.024   4.958  12.181
 1645SOL     OW35428   5.970   1.286  12.194
 1645SOL    HW135429   5.957   1.379  12.160
 1645SOL    HW235430   5.886   1.234  12.181
 1646SOL     OW35431   5.970   3.148  12.194
 1646SOL    HW135432   5.957   3.241  12.160
 1646SOL    HW235433   5.886   3.096  12.181
 1647SOL     OW35434   5.970   5.010  12.194
 1647SOL    HW135435   5.957   5.103  12.160
 1647SOL    HW235436   5.886   4.958  12.181
 1648SOL     OW35437   0.684   0.201  12.193
 1648SOL    HW135438   0.774   0.185  12.153
 1648SOL    HW235439   0.692   0.206  12.292
 1649SOL     OW35440   0.684   2.063  12.193
 1649SOL    HW135441   0.774   2.047  12.153
 1649SOL    HW235442   0.692   2.068  12.292
 1650SOL     OW35443   0.684   3.925  12.193
 1650SOL    HW135444   0.774   3.909  12.153
 1650SOL    HW235445   0.692   3.930  12.292
 1651SOL     OW35446   0.684   5.787  12.193
 1651SOL    HW135447   0.774   5.771  12.153
 1651SOL    HW235448   0.692   5.792  12.292
 1652SOL     OW35449   2.546   0.201  12.193
 1652SOL    HW135450   2.636   0.185  12.153
 1652SOL    HW235451   2.554   0.206  12.292
 1653SOL     OW35452   2.546   2.063  12.193
 1653SOL    HW135453   2.636   2.047  12.153
 1653SOL    HW235454   2.554   2.068  12.292
 1654SOL     OW35455   2.546   3.925  12.193
 1654SOL    HW135456   2.636   3.909  12.153
 1654SOL    HW235457   2.554   3.930  12.292
 1655SOL     OW35458   2.546   5.787  12.193
 1655SOL    HW135459   2.636   5.771  12.153
 1655SOL    HW235460   2.554   5.792  12.292
 1656SOL     OW35461   4.408   0.201  12.193
 1656SOL    HW135462   4.498   0.185  12.153
 1656SOL    HW235463   4.416   0.206  12.292
 1657SOL     OW35464   4.408   2.063  12.193
 1657SOL    HW135465   4.498   2.047  12.153
 1657SOL    HW235466   4.416   2.068  12.292
 1658SOL     OW35467   4.408   3.925  12.193
 1658SOL    HW135468   4.498   3.909  12.153
 1658SOL    HW235469   4.416   3.930  12.292
 1659SOL     OW35470   4.408   5.787  12.193
 1659SOL    HW135471   4.498   5.771  12.153
 1659SOL    HW235472   4.416   5.792  12.292
 1660SOL     OW35473   6.270   0.201  12.193
 1660SOL    HW135474   6.360   0.185  12.153
 1660SOL    HW235475   6.278   0.206  12.292
 1661SOL     OW35476   6.270   2.063  12.193
 1661SOL    HW135477   6.360   2.047  12.153
 1661SOL    HW235478   6.278   2.068  12.292
 1662SOL     OW35479   6.270   3.925  12.193
 1662SOL    HW135480   6.360   3.909  12.153
 1662SOL    HW235481   6.278   3.930  12.292
 1663SOL     OW35482   6.270   5.787  12.193
 1663SOL    HW135483   6.360   5.771  12.153
 1663SOL    HW235484   6.278   5.792  12.292
 1664SOL     OW35485   1.264   1.729   0.660
 1664SOL    HW135486   1.348   1.734   0.606
 1664SOL    HW235487   1.241   1.633   0.678
 1665SOL     OW35488   1.264   3.591   0.660
 1665SOL    HW135489   1.348   3.596   0.606
 1665SOL    HW235490   1.241   3.495   0.678
 1666SOL     OW35491   1.264   5.453   0.660
 1666SOL    HW135492   1.348   5.458   0.606
 1666SOL    HW235493   1.241   5.357   0.678
 1667SOL     OW35494   3.126   1.729   0.660
 1667SOL    HW135495   3.210   1.734   0.606
 1667SOL    HW235496   3.103   1.633   0.678
 1668SOL     OW35497   3.126   3.591   0.660
 1668SOL    HW135498   3.210   3.596   0.606
 1668SOL    HW235499   3.103   3.495   0.678
 1669SOL     OW35500   3.126   5.453   0.660
 1669SOL    HW135501   3.210   5.458   0.606
 1669SOL    HW235502   3.103   5.357   0.678
 1670SOL     OW35503   4.988   1.729   0.660
 1670SOL    HW135504   5.072   1.734   0.606
 1670SOL    HW235505   4.965   1.633   0.678
 1671SOL     OW35506   4.988   3.591   0.660
 1671SOL    HW135507   5.072   3.596   0.606
 1671SOL    HW235508   4.965   3.495   0.678
 1672SOL     OW35509   4.988   5.453   0.660
 1672SOL    HW135510   5.072   5.458   0.606
 1672SOL    HW235511   4.965   5.357   0.678
 1673SOL     OW35512   1.606   0.112  12.184
 1673SOL    HW135513   1.588   0.179  12.112
 1673SOL    HW235514   1.603   0.158  12.273
 1674SOL     OW35515   1.606   1.974  12.184
 1674SOL    HW135516   1.588   2.041  12.112
 1674SOL    HW235517   1.603   2.020  12.273
 1675SOL     OW35518   1.606   3.836  12.184
 1675SOL    HW135519   1.588   3.903  12.112
 1675SOL    HW235520   1.603   3.882  12.273
 1676SOL     OW35521   1.606   5.698  12.184
 1676SOL    HW135522   1.588   5.765  12.112
 1676SOL    HW235523   1.603   5.744  12.273
 1677SOL     OW35524   3.468   0.112  12.184
 1677SOL    HW135525   3.450   0.179  12.112
 1677SOL    HW235526   3.465   0.158  12.273
 1678SOL     OW35527   3.468   1.974  12.184
 1678SOL    HW135528   3.450   2.041  12.112
 1678SOL    HW235529   3.465   2.020  12.273
 1679SOL     OW35530   3.468   3.836  12.184
 1679SOL    HW135531   3.450   3.903  12.112
 1679SOL    HW235532   3.465   3.882  12.273
 1680SOL     OW35533   3.468   5.698  12.184
 1680SOL    HW135534   3.450   5.765  12.112
 1680SOL    HW235535   3.465   5.744  12.273
 1681SOL     OW35536   5.330   0.112  12.184
 1681SOL    HW135537   5.312   0.179  12.112
 1681SOL    HW235538   5.327   0.158  12.273
 1682SOL     OW35539   5.330   1.974  12.184
 1682SOL    HW135540   5.312   2.041  12.112
 1682SOL    HW235541   5.327   2.020  12.273
 1683SOL     OW35542   5.330   3.836  12.184
 1683SOL    HW135543   5.312   3.903  12.112
 1683SOL    HW235544   5.327   3.882  12.273
 1684SOL     OW35545   5.330   5.698  12.184
 1684SOL    HW135546   5.312   5.765  12.112
 1684SOL    HW235547   5.327   5.744  12.273
 1685SOL     OW35548   1.172   0.205  12.181
 1685SOL    HW135549   1.172   0.269  12.258
 1685SOL    HW235550   1.200   0.253  12.098
 1686SOL     OW35551   1.172   2.067  12.181
 1686SOL    HW135552   1.172   2.131  12.258
 1686SOL    HW235553   1.200   2.115  12.098
 1687SOL     OW35554   1.172   3.929  12.181
 1687SOL    HW135555   1.172   3.993  12.258
 1687SOL    HW235556   1.200   3.977  12.098
 1688SOL     OW35557   1.172   5.791  12.181
 1688SOL    HW135558   1.172   5.855  12.258
 1688SOL    HW235559   1.200   5.839  12.098
 1689SOL     OW35560   3.034   0.205  12.181
 1689SOL    HW135561   3.034   0.269  12.258
 1689SOL    HW235562   3.062   0.253  12.098
 1690SOL     OW35563   3.034   2.067  12.181
 1690SOL    HW135564   3.034   2.131  12.258
 1690SOL    HW235565   3.062   2.115  12.098
 1691SOL     OW35566   3.034   3.929  12.181
 1691SOL    HW135567   3.034   3.993  12.258
 1691SOL    HW235568   3.062   3.977  12.098
 1692SOL     OW35569   3.034   5.791  12.181
 1692SOL    HW135570   3.034   5.855  12.258
 1692SOL    HW235571   3.062   5.839  12.098
 1693SOL     OW35572   4.896   0.205  12.181
 1693SOL    HW135573   4.896   0.269  12.258
 1693SOL    HW235574   4.924   0.253  12.098
 1694SOL     OW35575   4.896   2.067  12.181
 1694SOL    HW135576   4.896   2.131  12.258
 1694SOL    HW235577   4.924   2.115  12.098
 1695SOL     OW35578   4.896   3.929  12.181
 1695SOL    HW135579   4.896   3.993  12.258
 1695SOL    HW235580   4.924   3.977  12.098
 1696SOL     OW35581   4.896   5.791  12.181
 1696SOL    HW135582   4.896   5.855  12.258
 1696SOL    HW235583   4.924   5.839  12.098
 1697SOL     OW35584   1.284   1.443   0.674
 1697SOL    HW135585   1.331   1.456   0.761
 1697SOL    HW235586   1.218   1.369   0.683
 1698SOL     OW35587   1.284   3.305   0.674
 1698SOL    HW135588   1.331   3.318   0.761
 1698SOL    HW235589   1.218   3.231   0.683
 1699SOL     OW35590   1.284   5.167   0.674
 1699SOL    HW135591   1.331   5.180   0.761
 1699SOL    HW235592   1.218   5.093   0.683
 1700SOL     OW35593   3.146   1.443   0.674
 1700SOL    HW135594   3.193   1.456   0.761
 1700SOL    HW235595   3.080   1.369   0.683
 1701SOL     OW35596   3.146   3.305   0.674
 1701SOL    HW135597   3.193   3.318   0.761
 1701SOL    HW235598   3.080   3.231   0.683
 1702SOL     OW35599   3.146   5.167   0.674
 1702SOL    HW135600   3.193   5.180   0.761
 1702SOL    HW235601   3.080   5.093   0.683
 1703SOL     OW35602   5.008   1.443   0.674
 1703SOL    HW135603   5.055   1.456   0.761
 1703SOL    HW235604   4.942   1.369   0.683
 1704SOL     OW35605   5.008   3.305   0.674
 1704SOL    HW135606   5.055   3.318   0.761
 1704SOL    HW235607   4.942   3.231   0.683
 1705SOL     OW35608   5.008   5.167   0.674
 1705SOL    HW135609   5.055   5.180   0.761
 1705SOL    HW235610   4.942   5.093   0.683
 1706SOL     OW35611   0.171   1.135  12.170
 1706SOL    HW135612   0.193   1.074  12.246
 1706SOL    HW235613   0.181   1.086  12.084
 1707SOL     OW35614   0.171   2.997  12.170
 1707SOL    HW135615   0.193   2.936  12.246
 1707SOL    HW235616   0.181   2.948  12.084
 1708SOL     OW35617   0.171   4.859  12.170
 1708SOL    HW135618   0.193   4.798  12.246
 1708SOL    HW235619   0.181   4.810  12.084
 1709SOL     OW35620   2.033   1.135  12.170
 1709SOL    HW135621   2.055   1.074  12.246
 1709SOL    HW235622   2.043   1.086  12.084
 1710SOL     OW35623   2.033   2.997  12.170
 1710SOL    HW135624   2.055   2.936  12.246
 1710SOL    HW235625   2.043   2.948  12.084
 1711SOL     OW35626   2.033   4.859  12.170
 1711SOL    HW135627   2.055   4.798  12.246
 1711SOL    HW235628   2.043   4.810  12.084
 1712SOL     OW35629   3.895   1.135  12.170
 1712SOL    HW135630   3.917   1.074  12.246
 1712SOL    HW235631   3.905   1.086  12.084
 1713SOL     OW35632   3.895   2.997  12.170
 1713SOL    HW135633   3.917   2.936  12.246
 1713SOL    HW235634   3.905   2.948  12.084
 1714SOL     OW35635   3.895   4.859  12.170
 1714SOL    HW135636   3.917   4.798  12.246
 1714SOL    HW235637   3.905   4.810  12.084
 1715SOL     OW35638   5.757   1.135  12.170
 1715SOL    HW135639   5.779   1.074  12.246
 1715SOL    HW235640   5.767   1.086  12.084
 1716SOL     OW35641   5.757   2.997  12.170
 1716SOL    HW135642   5.779   2.936  12.246
 1716SOL    HW235643   5.767   2.948  12.084
 1717SOL     OW35644   5.757   4.859  12.170
 1717SOL    HW135645   5.779   4.798  12.246
 1717SOL    HW235646   5.767   4.810  12.084
 1718SOL     OW35647   0.819   0.603  12.169
 1718SOL    HW135648   0.772   0.600  12.258
 1718SOL    HW235649   0.768   0.548  12.103
 1719SOL     OW35650   0.942   1.676  12.169
 1719SOL    HW135651   0.918   1.658  12.074
 1719SOL    HW235652   0.972   1.770  12.179
 1720SOL     OW35653   0.819   2.465  12.169
 1720SOL    HW135654   0.772   2.462  12.258
 1720SOL    HW235655   0.768   2.410  12.103
 1721SOL     OW35656   0.942   3.538  12.169
 1721SOL    HW135657   0.918   3.520  12.074
 1721SOL    HW235658   0.972   3.632  12.179
 1722SOL     OW35659   0.819   4.327  12.169
 1722SOL    HW135660   0.772   4.324  12.258
 1722SOL    HW235661   0.768   4.272  12.103
 1723SOL     OW35662   0.942   5.400  12.169
 1723SOL    HW135663   0.918   5.382  12.074
 1723SOL    HW235664   0.972   5.494  12.179
 1724SOL     OW35665   0.819   6.189  12.169
 1724SOL    HW135666   0.772   6.186  12.258
 1724SOL    HW235667   0.768   6.134  12.103
 1725SOL     OW35668   2.681   0.603  12.169
 1725SOL    HW135669   2.634   0.600  12.258
 1725SOL    HW235670   2.630   0.548  12.103
 1726SOL     OW35671   2.804   1.676  12.169
 1726SOL    HW135672   2.780   1.658  12.074
 1726SOL    HW235673   2.834   1.770  12.179
 1727SOL     OW35674   2.681   2.465  12.169
 1727SOL    HW135675   2.634   2.462  12.258
 1727SOL    HW235676   2.630   2.410  12.103
 1728SOL     OW35677   2.804   3.538  12.169
 1728SOL    HW135678   2.780   3.520  12.074
 1728SOL    HW235679   2.834   3.632  12.179
 1729SOL     OW35680   2.681   4.327  12.169
 1729SOL    HW135681   2.634   4.324  12.258
 1729SOL    HW235682   2.630   4.272  12.103
 1730SOL     OW35683   2.804   5.400  12.169
 1730SOL    HW135684   2.780   5.382  12.074
 1730SOL    HW235685   2.834   5.494  12.179
 1731SOL     OW35686   2.681   6.189  12.169
 1731SOL    HW135687   2.634   6.186  12.258
 1731SOL    HW235688   2.630   6.134  12.103
 1732SOL     OW35689   4.543   0.603  12.169
 1732SOL    HW135690   4.496   0.600  12.258
 1732SOL    HW235691   4.492   0.548  12.103
 1733SOL     OW35692   4.666   1.676  12.169
 1733SOL    HW135693   4.642   1.658  12.074
 1733SOL    HW235694   4.696   1.770  12.179
 1734SOL     OW35695   4.543   2.465  12.169
 1734SOL    HW135696   4.496   2.462  12.258
 1734SOL    HW235697   4.492   2.410  12.103
 1735SOL     OW35698   4.666   3.538  12.169
 1735SOL    HW135699   4.642   3.520  12.074
 1735SOL    HW235700   4.696   3.632  12.179
 1736SOL     OW35701   4.543   4.327  12.169
 1736SOL    HW135702   4.496   4.324  12.258
 1736SOL    HW235703   4.492   4.272  12.103
 1737SOL     OW35704   4.666   5.400  12.169
 1737SOL    HW135705   4.642   5.382  12.074
 1737SOL    HW235706   4.696   5.494  12.179
 1738SOL     OW35707   4.543   6.189  12.169
 1738SOL    HW135708   4.496   6.186  12.258
 1738SOL    HW235709   4.492   6.134  12.103
 1739SOL     OW35710   1.088   0.681  12.168
 1739SOL    HW135711   1.008   0.620  12.171
 1739SOL    HW235712   1.169   0.628  12.144
 1740SOL     OW35713   1.088   2.543  12.168
 1740SOL    HW135714   1.008   2.482  12.171
 1740SOL    HW235715   1.169   2.490  12.144
 1741SOL     OW35716   1.088   4.405  12.168
 1741SOL    HW135717   1.008   4.344  12.171
 1741SOL    HW235718   1.169   4.352  12.144
 1742SOL     OW35719   1.088   6.267  12.168
 1742SOL    HW135720   1.008   6.206  12.171
 1742SOL    HW235721   1.169   6.214  12.144
 1743SOL     OW35722   2.950   0.681  12.168
 1743SOL    HW135723   2.870   0.620  12.171
 1743SOL    HW235724   3.031   0.628  12.144
 1744SOL     OW35725   2.950   2.543  12.168
 1744SOL    HW135726   2.870   2.482  12.171
 1744SOL    HW235727   3.031   2.490  12.144
 1745SOL     OW35728   2.950   4.405  12.168
 1745SOL    HW135729   2.870   4.344  12.171
 1745SOL    HW235730   3.031   4.352  12.144
 1746SOL     OW35731   2.950   6.267  12.168
 1746SOL    HW135732   2.870   6.206  12.171
 1746SOL    HW235733   3.031   6.214  12.144
 1747SOL     OW35734   4.812   0.681  12.168
 1747SOL    HW135735   4.732   0.620  12.171
 1747SOL    HW235736   4.893   0.628  12.144
 1748SOL     OW35737   4.812   2.543  12.168
 1748SOL    HW135738   4.732   2.482  12.171
 1748SOL    HW235739   4.893   2.490  12.144
 1749SOL     OW35740   4.812   4.405  12.168
 1749SOL    HW135741   4.732   4.344  12.171
 1749SOL    HW235742   4.893   4.352  12.144
 1750SOL     OW35743   4.812   6.267  12.168
 1750SOL    HW135744   4.732   6.206  12.171
 1750SOL    HW235745   4.893   6.214  12.144
 1751SOL     OW35746   0.573   0.220   0.679
 1751SOL    HW135747   0.611   0.136   0.716
 1751SOL    HW235748   0.485   0.239   0.723
 1752SOL     OW35749   0.573   2.082   0.679
 1752SOL    HW135750   0.611   1.998   0.716
 1752SOL    HW235751   0.485   2.101   0.723
 1753SOL     OW35752   0.573   3.944   0.679
 1753SOL    HW135753   0.611   3.860   0.716
 1753SOL    HW235754   0.485   3.963   0.723
 1754SOL     OW35755   0.573   5.806   0.679
 1754SOL    HW135756   0.611   5.722   0.716
 1754SOL    HW235757   0.485   5.825   0.723
 1755SOL     OW35758   2.435   0.220   0.679
 1755SOL    HW135759   2.473   0.136   0.716
 1755SOL    HW235760   2.347   0.239   0.723
 1756SOL     OW35761   2.435   2.082   0.679
 1756SOL    HW135762   2.473   1.998   0.716
 1756SOL    HW235763   2.347   2.101   0.723
 1757SOL     OW35764   2.435   3.944   0.679
 1757SOL    HW135765   2.473   3.860   0.716
 1757SOL    HW235766   2.347   3.963   0.723
 1758SOL     OW35767   2.435   5.806   0.679
 1758SOL    HW135768   2.473   5.722   0.716
 1758SOL    HW235769   2.347   5.825   0.723
 1759SOL     OW35770   4.297   0.220   0.679
 1759SOL    HW135771   4.335   0.136   0.716
 1759SOL    HW235772   4.209   0.239   0.723
 1760SOL     OW35773   4.297   2.082   0.679
 1760SOL    HW135774   4.335   1.998   0.716
 1760SOL    HW235775   4.209   2.101   0.723
 1761SOL     OW35776   4.297   3.944   0.679
 1761SOL    HW135777   4.335   3.860   0.716
 1761SOL    HW235778   4.209   3.963   0.723
 1762SOL     OW35779   4.297   5.806   0.679
 1762SOL    HW135780   4.335   5.722   0.716
 1762SOL    HW235781   4.209   5.825   0.723
 1763SOL     OW35782   6.159   0.220   0.679
 1763SOL    HW135783   6.197   0.136   0.716
 1763SOL    HW235784   6.071   0.239   0.723
 1764SOL     OW35785   6.159   2.082   0.679
 1764SOL    HW135786   6.197   1.998   0.716
 1764SOL    HW235787   6.071   2.101   0.723
 1765SOL     OW35788   6.159   3.944   0.679
 1765SOL    HW135789   6.197   3.860   0.716
 1765SOL    HW235790   6.071   3.963   0.723
 1766SOL     OW35791   6.159   5.806   0.679
 1766SOL    HW135792   6.197   5.722   0.716
 1766SOL    HW235793   6.071   5.825   0.723
 1767SOL     OW35794   1.771   1.745   0.686
 1767SOL    HW135795   1.832   1.775   0.613
 1767SOL    HW235796   1.733   1.656   0.664
 1768SOL     OW35797   1.013   0.032   0.686
 1768SOL    HW135798   0.950   6.410   0.655
 1768SOL    HW235799   1.106   6.446   0.686
 1769SOL     OW35800   1.771   3.607   0.686
 1769SOL    HW135801   1.832   3.637   0.613
 1769SOL    HW235802   1.733   3.518   0.664
 1770SOL     OW35803   1.013   1.894   0.686
 1770SOL    HW135804   0.950   1.822   0.655
 1770SOL    HW235805   1.106   1.858   0.686
 1771SOL     OW35806   1.771   5.469   0.686
 1771SOL    HW135807   1.832   5.499   0.613
 1771SOL    HW235808   1.733   5.380   0.664
 1772SOL     OW35809   1.013   3.756   0.686
 1772SOL    HW135810   0.950   3.684   0.655
 1772SOL    HW235811   1.106   3.720   0.686
 1773SOL     OW35812   1.013   5.618   0.686
 1773SOL    HW135813   0.950   5.546   0.655
 1773SOL    HW235814   1.106   5.582   0.686
 1774SOL     OW35815   3.633   1.745   0.686
 1774SOL    HW135816   3.694   1.775   0.613
 1774SOL    HW235817   3.595   1.656   0.664
 1775SOL     OW35818   2.875   0.032   0.686
 1775SOL    HW135819   2.812   6.410   0.655
 1775SOL    HW235820   2.968   6.446   0.686
 1776SOL     OW35821   3.633   3.607   0.686
 1776SOL    HW135822   3.694   3.637   0.613
 1776SOL    HW235823   3.595   3.518   0.664
 1777SOL     OW35824   2.875   1.894   0.686
 1777SOL    HW135825   2.812   1.822   0.655
 1777SOL    HW235826   2.968   1.858   0.686
 1778SOL     OW35827   3.633   5.469   0.686
 1778SOL    HW135828   3.694   5.499   0.613
 1778SOL    HW235829   3.595   5.380   0.664
 1779SOL     OW35830   2.875   3.756   0.686
 1779SOL    HW135831   2.812   3.684   0.655
 1779SOL    HW235832   2.968   3.720   0.686
 1780SOL     OW35833   2.875   5.618   0.686
 1780SOL    HW135834   2.812   5.546   0.655
 1780SOL    HW235835   2.968   5.582   0.686
 1781SOL     OW35836   5.495   1.745   0.686
 1781SOL    HW135837   5.556   1.775   0.613
 1781SOL    HW235838   5.457   1.656   0.664
 1782SOL     OW35839   4.737   0.032   0.686
 1782SOL    HW135840   4.674   6.410   0.655
 1782SOL    HW235841   4.830   6.446   0.686
 1783SOL     OW35842   5.495   3.607   0.686
 1783SOL    HW135843   5.556   3.637   0.613
 1783SOL    HW235844   5.457   3.518   0.664
 1784SOL     OW35845   4.737   1.894   0.686
 1784SOL    HW135846   4.674   1.822   0.655
 1784SOL    HW235847   4.830   1.858   0.686
 1785SOL     OW35848   5.495   5.469   0.686
 1785SOL    HW135849   5.556   5.499   0.613
 1785SOL    HW235850   5.457   5.380   0.664
 1786SOL     OW35851   4.737   3.756   0.686
 1786SOL    HW135852   4.674   3.684   0.655
 1786SOL    HW235853   4.830   3.720   0.686
 1787SOL     OW35854   4.737   5.618   0.686
 1787SOL    HW135855   4.674   5.546   0.655
 1787SOL    HW235856   4.830   5.582   0.686
 1788SOL     OW35857   0.149   0.032   0.686
 1788SOL    HW135858   0.086   6.410   0.655
 1788SOL    HW235859   0.242   6.446   0.686
 1789SOL     OW35860   0.581   1.273   0.697
 1789SOL    HW135861   0.488   1.266   0.660
 1789SOL    HW235862   0.592   1.362   0.741
 1790SOL     OW35863   0.581   3.135   0.697
 1790SOL    HW135864   0.488   3.128   0.660
 1790SOL    HW235865   0.592   3.224   0.741
 1791SOL     OW35866   0.581   4.997   0.697
 1791SOL    HW135867   0.488   4.990   0.660
 1791SOL    HW235868   0.592   5.086   0.741
 1792SOL     OW35869   2.443   1.273   0.697
 1792SOL    HW135870   2.350   1.266   0.660
 1792SOL    HW235871   2.454   1.362   0.741
 1793SOL     OW35872   2.443   3.135   0.697
 1793SOL    HW135873   2.350   3.128   0.660
 1793SOL    HW235874   2.454   3.224   0.741
 1794SOL     OW35875   2.443   4.997   0.697
 1794SOL    HW135876   2.350   4.990   0.660
 1794SOL    HW235877   2.454   5.086   0.741
 1795SOL     OW35878   4.305   1.273   0.697
 1795SOL    HW135879   4.212   1.266   0.660
 1795SOL    HW235880   4.316   1.362   0.741
 1796SOL     OW35881   4.305   3.135   0.697
 1796SOL    HW135882   4.212   3.128   0.660
 1796SOL    HW235883   4.316   3.224   0.741
 1797SOL     OW35884   4.305   4.997   0.697
 1797SOL    HW135885   4.212   4.990   0.660
 1797SOL    HW235886   4.316   5.086   0.741
 1798SOL     OW35887   6.167   1.273   0.697
 1798SOL    HW135888   6.074   1.266   0.660
 1798SOL    HW235889   6.178   1.362   0.741
 1799SOL     OW35890   6.167   3.135   0.697
 1799SOL    HW135891   6.074   3.128   0.660
 1799SOL    HW235892   6.178   3.224   0.741
 1800SOL     OW35893   6.167   4.997   0.697
 1800SOL    HW135894   6.074   4.990   0.660
 1800SOL    HW235895   6.178   5.086   0.741
 1801SOL     OW35896   0.632   1.784  12.143
 1801SOL    HW135897   0.540   1.767  12.178
 1801SOL    HW235898   0.660   1.876  12.169
 1802SOL     OW35899   0.632   3.646  12.143
 1802SOL    HW135900   0.540   3.629  12.178
 1802SOL    HW235901   0.660   3.738  12.169
 1803SOL     OW35902   0.632   5.508  12.143
 1803SOL    HW135903   0.540   5.491  12.178
 1803SOL    HW235904   0.660   5.600  12.169
 1804SOL     OW35905   2.494   1.784  12.143
 1804SOL    HW135906   2.402   1.767  12.178
 1804SOL    HW235907   2.522   1.876  12.169
 1805SOL     OW35908   2.494   3.646  12.143
 1805SOL    HW135909   2.402   3.629  12.178
 1805SOL    HW235910   2.522   3.738  12.169
 1806SOL     OW35911   2.494   5.508  12.143
 1806SOL    HW135912   2.402   5.491  12.178
 1806SOL    HW235913   2.522   5.600  12.169
 1807SOL     OW35914   4.356   1.784  12.143
 1807SOL    HW135915   4.264   1.767  12.178
 1807SOL    HW235916   4.384   1.876  12.169
 1808SOL     OW35917   4.356   3.646  12.143
 1808SOL    HW135918   4.264   3.629  12.178
 1808SOL    HW235919   4.384   3.738  12.169
 1809SOL     OW35920   4.356   5.508  12.143
 1809SOL    HW135921   4.264   5.491  12.178
 1809SOL    HW235922   4.384   5.600  12.169
 1810SOL     OW35923   6.218   1.784  12.143
 1810SOL    HW135924   6.126   1.767  12.178
 1810SOL    HW235925   6.246   1.876  12.169
 1811SOL     OW35926   6.218   3.646  12.143
 1811SOL    HW135927   6.126   3.629  12.178
 1811SOL    HW235928   6.246   3.738  12.169
 1812SOL     OW35929   6.218   5.508  12.143
 1812SOL    HW135930   6.126   5.491  12.178
 1812SOL    HW235931   6.246   5.600  12.169
 1813SOL     OW35932   1.363   0.588  12.137
 1813SOL    HW135933   1.391   0.545  12.222
 1813SOL    HW235934   1.388   0.684  12.138
 1814SOL     OW35935   1.363   2.450  12.137
 1814SOL    HW135936   1.391   2.407  12.222
 1814SOL    HW235937   1.388   2.546  12.138
 1815SOL     OW35938   1.363   4.312  12.137
 1815SOL    HW135939   1.391   4.269  12.222
 1815SOL    HW235940   1.388   4.408  12.138
 1816SOL     OW35941   1.363   6.174  12.137
 1816SOL    HW135942   1.391   6.131  12.222
 1816SOL    HW235943   1.388   6.270  12.138
 1817SOL     OW35944   3.225   0.588  12.137
 1817SOL    HW135945   3.253   0.545  12.222
 1817SOL    HW235946   3.250   0.684  12.138
 1818SOL     OW35947   3.225   2.450  12.137
 1818SOL    HW135948   3.253   2.407  12.222
 1818SOL    HW235949   3.250   2.546  12.138
 1819SOL     OW35950   3.225   4.312  12.137
 1819SOL    HW135951   3.253   4.269  12.222
 1819SOL    HW235952   3.250   4.408  12.138
 1820SOL     OW35953   3.225   6.174  12.137
 1820SOL    HW135954   3.253   6.131  12.222
 1820SOL    HW235955   3.250   6.270  12.138
 1821SOL     OW35956   5.087   0.588  12.137
 1821SOL    HW135957   5.115   0.545  12.222
 1821SOL    HW235958   5.112   0.684  12.138
 1822SOL     OW35959   5.087   2.450  12.137
 1822SOL    HW135960   5.115   2.407  12.222
 1822SOL    HW235961   5.112   2.546  12.138
 1823SOL     OW35962   5.087   4.312  12.137
 1823SOL    HW135963   5.115   4.269  12.222
 1823SOL    HW235964   5.112   4.408  12.138
 1824SOL     OW35965   5.087   6.174  12.137
 1824SOL    HW135966   5.115   6.131  12.222
 1824SOL    HW235967   5.112   6.270  12.138
 1825SOL     OW35968   0.625   0.840  12.135
 1825SOL    HW135969   0.681   0.921  12.118
 1825SOL    HW235970   0.684   0.760  12.138
 1826SOL     OW35971   0.625   2.702  12.135
 1826SOL    HW135972   0.681   2.783  12.118
 1826SOL    HW235973   0.684   2.622  12.138
 1827SOL     OW35974   0.625   4.564  12.135
 1827SOL    HW135975   0.681   4.645  12.118
 1827SOL    HW235976   0.684   4.484  12.138
 1828SOL     OW35977   0.625   6.426  12.135
 1828SOL    HW135978   0.681   0.057  12.118
 1828SOL    HW235979   0.684   6.346  12.138
 1829SOL     OW35980   2.487   0.840  12.135
 1829SOL    HW135981   2.543   0.921  12.118
 1829SOL    HW235982   2.546   0.760  12.138
 1830SOL     OW35983   2.487   2.702  12.135
 1830SOL    HW135984   2.543   2.783  12.118
 1830SOL    HW235985   2.546   2.622  12.138
 1831SOL     OW35986   2.487   4.564  12.135
 1831SOL    HW135987   2.543   4.645  12.118
 1831SOL    HW235988   2.546   4.484  12.138
 1832SOL     OW35989   2.487   6.426  12.135
 1832SOL    HW135990   2.543   0.057  12.118
 1832SOL    HW235991   2.546   6.346  12.138
 1833SOL     OW35992   4.349   0.840  12.135
 1833SOL    HW135993   4.405   0.921  12.118
 1833SOL    HW235994   4.408   0.760  12.138
 1834SOL     OW35995   4.349   2.702  12.135
 1834SOL    HW135996   4.405   2.783  12.118
 1834SOL    HW235997   4.408   2.622  12.138
 1835SOL     OW35998   4.349   4.564  12.135
 1835SOL    HW135999   4.405   4.645  12.118
 1835SOL    HW236000   4.408   4.484  12.138
 1836SOL     OW36001   4.349   6.426  12.135
 1836SOL    HW136002   4.405   0.057  12.118
 1836SOL    HW236003   4.408   6.346  12.138
 1837SOL     OW36004   6.211   0.840  12.135
 1837SOL    HW136005   6.267   0.921  12.118
 1837SOL    HW236006   6.270   0.760  12.138
 1838SOL     OW36007   6.211   2.702  12.135
 1838SOL    HW136008   6.267   2.783  12.118
 1838SOL    HW236009   6.270   2.622  12.138
 1839SOL     OW36010   6.211   4.564  12.135
 1839SOL    HW136011   6.267   4.645  12.118
 1839SOL    HW236012   6.270   4.484  12.138
 1840SOL     OW36013   6.211   6.426  12.135
 1840SOL    HW136014   6.267   0.057  12.118
 1840SOL    HW236015   6.270   6.346  12.138
 1841SOL     OW36016   1.305   1.226  12.127
 1841SOL    HW136017   1.342   1.153  12.069
 1841SOL    HW236018   1.357   1.231  12.212
 1842SOL     OW36019   1.305   3.088  12.127
 1842SOL    HW136020   1.342   3.015  12.069
 1842SOL    HW236021   1.357   3.093  12.212
 1843SOL     OW36022   1.305   4.950  12.127
 1843SOL    HW136023   1.342   4.877  12.069
 1843SOL    HW236024   1.357   4.955  12.212
 1844SOL     OW36025   3.167   1.226  12.127
 1844SOL    HW136026   3.204   1.153  12.069
 1844SOL    HW236027   3.219   1.231  12.212
 1845SOL     OW36028   3.167   3.088  12.127
 1845SOL    HW136029   3.204   3.015  12.069
 1845SOL    HW236030   3.219   3.093  12.212
 1846SOL     OW36031   3.167   4.950  12.127
 1846SOL    HW136032   3.204   4.877  12.069
 1846SOL    HW236033   3.219   4.955  12.212
 1847SOL     OW36034   5.029   1.226  12.127
 1847SOL    HW136035   5.066   1.153  12.069
 1847SOL    HW236036   5.081   1.231  12.212
 1848SOL     OW36037   5.029   3.088  12.127
 1848SOL    HW136038   5.066   3.015  12.069
 1848SOL    HW236039   5.081   3.093  12.212
 1849SOL     OW36040   5.029   4.950  12.127
 1849SOL    HW136041   5.066   4.877  12.069
 1849SOL    HW236042   5.081   4.955  12.212
 1850SOL     OW36043   0.842   1.271  12.126
 1850SOL    HW136044   0.837   1.304  12.221
 1850SOL    HW236045   0.756   1.290  12.080
 1851SOL     OW36046   0.842   3.133  12.126
 1851SOL    HW136047   0.837   3.166  12.221
 1851SOL    HW236048   0.756   3.152  12.080
 1852SOL     OW36049   0.842   4.995  12.126
 1852SOL    HW136050   0.837   5.028  12.221
 1852SOL    HW236051   0.756   5.014  12.080
 1853SOL     OW36052   2.704   1.271  12.126
 1853SOL    HW136053   2.699   1.304  12.221
 1853SOL    HW236054   2.618   1.290  12.080
 1854SOL     OW36055   2.704   3.133  12.126
 1854SOL    HW136056   2.699   3.166  12.221
 1854SOL    HW236057   2.618   3.152  12.080
 1855SOL     OW36058   2.704   4.995  12.126
 1855SOL    HW136059   2.699   5.028  12.221
 1855SOL    HW236060   2.618   5.014  12.080
 1856SOL     OW36061   4.566   1.271  12.126
 1856SOL    HW136062   4.561   1.304  12.221
 1856SOL    HW236063   4.480   1.290  12.080
 1857SOL     OW36064   4.566   3.133  12.126
 1857SOL    HW136065   4.561   3.166  12.221
 1857SOL    HW236066   4.480   3.152  12.080
 1858SOL     OW36067   4.566   4.995  12.126
 1858SOL    HW136068   4.561   5.028  12.221
 1858SOL    HW236069   4.480   5.014  12.080
 1859SOL     OW36070   0.900   1.512   0.727
 1859SOL    HW136071   0.877   1.487   0.633
 1859SOL    HW236072   0.961   1.443   0.766
 1860SOL     OW36073   0.900   3.374   0.727
 1860SOL    HW136074   0.877   3.349   0.633
 1860SOL    HW236075   0.961   3.305   0.766
 1861SOL     OW36076   0.900   5.236   0.727
 1861SOL    HW136077   0.877   5.211   0.633
 1861SOL    HW236078   0.961   5.167   0.766
 1862SOL     OW36079   2.762   1.512   0.727
 1862SOL    HW136080   2.739   1.487   0.633
 1862SOL    HW236081   2.823   1.443   0.766
 1863SOL     OW36082   2.762   3.374   0.727
 1863SOL    HW136083   2.739   3.349   0.633
 1863SOL    HW236084   2.823   3.305   0.766
 1864SOL     OW36085   2.762   5.236   0.727
 1864SOL    HW136086   2.739   5.211   0.633
 1864SOL    HW236087   2.823   5.167   0.766
 1865SOL     OW36088   4.624   1.512   0.727
 1865SOL    HW136089   4.601   1.487   0.633
 1865SOL    HW236090   4.685   1.443   0.766
 1866SOL     OW36091   4.624   3.374   0.727
 1866SOL    HW136092   4.601   3.349   0.633
 1866SOL    HW236093   4.685   3.305   0.766
 1867SOL     OW36094   4.624   5.236   0.727
 1867SOL    HW136095   4.601   5.211   0.633
 1867SOL    HW236096   4.685   5.167   0.766
 1868SOL     OW36097   1.669   0.602   0.738
 1868SOL    HW136098   1.631   0.533   0.800
 1868SOL    HW236099   1.751   0.566   0.694
 1869SOL     OW36100   1.669   2.464   0.738
 1869SOL    HW136101   1.631   2.395   0.800
 1869SOL    HW236102   1.751   2.428   0.694
 1870SOL     OW36103   1.669   4.326   0.738
 1870SOL    HW136104   1.631   4.257   0.800
 1870SOL    HW236105   1.751   4.290   0.694
 1871SOL     OW36106   1.669   6.188   0.738
 1871SOL    HW136107   1.631   6.119   0.800
 1871SOL    HW236108   1.751   6.152   0.694
 1872SOL     OW36109   3.531   0.602   0.738
 1872SOL    HW136110   3.493   0.533   0.800
 1872SOL    HW236111   3.613   0.566   0.694
 1873SOL     OW36112   3.531   2.464   0.738
 1873SOL    HW136113   3.493   2.395   0.800
 1873SOL    HW236114   3.613   2.428   0.694
 1874SOL     OW36115   3.531   4.326   0.738
 1874SOL    HW136116   3.493   4.257   0.800
 1874SOL    HW236117   3.613   4.290   0.694
 1875SOL     OW36118   3.531   6.188   0.738
 1875SOL    HW136119   3.493   6.119   0.800
 1875SOL    HW236120   3.613   6.152   0.694
 1876SOL     OW36121   5.393   0.602   0.738
 1876SOL    HW136122   5.355   0.533   0.800
 1876SOL    HW236123   5.475   0.566   0.694
 1877SOL     OW36124   5.393   2.464   0.738
 1877SOL    HW136125   5.355   2.395   0.800
 1877SOL    HW236126   5.475   2.428   0.694
 1878SOL     OW36127   5.393   4.326   0.738
 1878SOL    HW136128   5.355   4.257   0.800
 1878SOL    HW236129   5.475   4.290   0.694
 1879SOL     OW36130   5.393   6.188   0.738
 1879SOL    HW136131   5.355   6.119   0.800
 1879SOL    HW236132   5.475   6.152   0.694
 1880SOL     OW36133   0.927   0.087  12.106
 1880SOL    HW136134   0.952   0.067  12.011
 1880SOL    HW236135   0.999   0.143  12.148
 1881SOL     OW36136   0.927   1.949  12.106
 1881SOL    HW136137   0.952   1.929  12.011
 1881SOL    HW236138   0.999   2.005  12.148
 1882SOL     OW36139   0.927   3.811  12.106
 1882SOL    HW136140   0.952   3.791  12.011
 1882SOL    HW236141   0.999   3.867  12.148
 1883SOL     OW36142   0.927   5.673  12.106
 1883SOL    HW136143   0.952   5.653  12.011
 1883SOL    HW236144   0.999   5.729  12.148
 1884SOL     OW36145   2.789   0.087  12.106
 1884SOL    HW136146   2.814   0.067  12.011
 1884SOL    HW236147   2.861   0.143  12.148
 1885SOL     OW36148   2.789   1.949  12.106
 1885SOL    HW136149   2.814   1.929  12.011
 1885SOL    HW236150   2.861   2.005  12.148
 1886SOL     OW36151   2.789   3.811  12.106
 1886SOL    HW136152   2.814   3.791  12.011
 1886SOL    HW236153   2.861   3.867  12.148
 1887SOL     OW36154   2.789   5.673  12.106
 1887SOL    HW136155   2.814   5.653  12.011
 1887SOL    HW236156   2.861   5.729  12.148
 1888SOL     OW36157   4.651   0.087  12.106
 1888SOL    HW136158   4.676   0.067  12.011
 1888SOL    HW236159   4.723   0.143  12.148
 1889SOL     OW36160   4.651   1.949  12.106
 1889SOL    HW136161   4.676   1.929  12.011
 1889SOL    HW236162   4.723   2.005  12.148
 1890SOL     OW36163   4.651   3.811  12.106
 1890SOL    HW136164   4.676   3.791  12.011
 1890SOL    HW236165   4.723   3.867  12.148
 1891SOL     OW36166   4.651   5.673  12.106
 1891SOL    HW136167   4.676   5.653  12.011
 1891SOL    HW236168   4.723   5.729  12.148
 1892SOL     OW36169   0.063   0.087  12.106
 1892SOL    HW136170   0.088   0.067  12.011
 1892SOL    HW236171   0.135   0.143  12.148
 1893SOL     OW36172   0.063   1.949  12.106
 1893SOL    HW136173   0.088   1.929  12.011
 1893SOL    HW236174   0.135   2.005  12.148
 1894SOL     OW36175   0.063   3.811  12.106
 1894SOL    HW136176   0.088   3.791  12.011
 1894SOL    HW236177   0.135   3.867  12.148
 1895SOL     OW36178   0.063   5.673  12.106
 1895SOL    HW136179   0.088   5.653  12.011
 1895SOL    HW236180   0.135   5.729  12.148
 1896SOL     OW36181   1.452   0.854  12.102
 1896SOL    HW136182   1.395   0.906  12.039
 1896SOL    HW236183   1.548   0.866  12.078
 1897SOL     OW36184   1.452   2.716  12.102
 1897SOL    HW136185   1.395   2.768  12.039
 1897SOL    HW236186   1.548   2.728  12.078
 1898SOL     OW36187   1.452   4.578  12.102
 1898SOL    HW136188   1.395   4.630  12.039
 1898SOL    HW236189   1.548   4.590  12.078
 1899SOL     OW36190   1.452   6.440  12.102
 1899SOL    HW136191   1.395   0.042  12.039
 1899SOL    HW236192   1.548   0.002  12.078
 1900SOL     OW36193   3.314   0.854  12.102
 1900SOL    HW136194   3.257   0.906  12.039
 1900SOL    HW236195   3.410   0.866  12.078
 1901SOL     OW36196   3.314   2.716  12.102
 1901SOL    HW136197   3.257   2.768  12.039
 1901SOL    HW236198   3.410   2.728  12.078
 1902SOL     OW36199   3.314   4.578  12.102
 1902SOL    HW136200   3.257   4.630  12.039
 1902SOL    HW236201   3.410   4.590  12.078
 1903SOL     OW36202   3.314   6.440  12.102
 1903SOL    HW136203   3.257   0.042  12.039
 1903SOL    HW236204   3.410   0.002  12.078
 1904SOL     OW36205   5.176   0.854  12.102
 1904SOL    HW136206   5.119   0.906  12.039
 1904SOL    HW236207   5.272   0.866  12.078
 1905SOL     OW36208   5.176   2.716  12.102
 1905SOL    HW136209   5.119   2.768  12.039
 1905SOL    HW236210   5.272   2.728  12.078
 1906SOL     OW36211   5.176   4.578  12.102
 1906SOL    HW136212   5.119   4.630  12.039
 1906SOL    HW236213   5.272   4.590  12.078
 1907SOL     OW36214   5.176   6.440  12.102
 1907SOL    HW136215   5.119   0.042  12.039
 1907SOL    HW236216   5.272   0.002  12.078
 1908SOL     OW36217   1.662   1.718  12.098
 1908SOL    HW136218   1.715   1.728  12.014
 1908SOL    HW236219   1.635   1.808  12.132
 1909SOL     OW36220   1.662   3.580  12.098
 1909SOL    HW136221   1.715   3.590  12.014
 1909SOL    HW236222   1.635   3.670  12.132
 1910SOL     OW36223   1.662   5.442  12.098
 1910SOL    HW136224   1.715   5.452  12.014
 1910SOL    HW236225   1.635   5.532  12.132
 1911SOL     OW36226   3.524   1.718  12.098
 1911SOL    HW136227   3.577   1.728  12.014
 1911SOL    HW236228   3.497   1.808  12.132
 1912SOL     OW36229   3.524   3.580  12.098
 1912SOL    HW136230   3.577   3.590  12.014
 1912SOL    HW236231   3.497   3.670  12.132
 1913SOL     OW36232   3.524   5.442  12.098
 1913SOL    HW136233   3.577   5.452  12.014
 1913SOL    HW236234   3.497   5.532  12.132
 1914SOL     OW36235   5.386   1.718  12.098
 1914SOL    HW136236   5.439   1.728  12.014
 1914SOL    HW236237   5.359   1.808  12.132
 1915SOL     OW36238   5.386   3.580  12.098
 1915SOL    HW136239   5.439   3.590  12.014
 1915SOL    HW236240   5.359   3.670  12.132
 1916SOL     OW36241   5.386   5.442  12.098
 1916SOL    HW136242   5.439   5.452  12.014
 1916SOL    HW236243   5.359   5.532  12.132
 1917SOL     OW36244   0.090   0.554  12.090
 1917SOL    HW136245   0.182   0.553  12.049
 1917SOL    HW236246   0.084   0.628  12.157
 1918SOL     OW36247   0.090   2.416  12.090
 1918SOL    HW136248   0.182   2.415  12.049
 1918SOL    HW236249   0.084   2.490  12.157
 1919SOL     OW36250   0.090   4.278  12.090
 1919SOL    HW136251   0.182   4.277  12.049
 1919SOL    HW236252   0.084   4.352  12.157
 1920SOL     OW36253   0.090   6.140  12.090
 1920SOL    HW136254   0.182   6.139  12.049
 1920SOL    HW236255   0.084   6.214  12.157
 1921SOL     OW36256   1.952   0.554  12.090
 1921SOL    HW136257   2.044   0.553  12.049
 1921SOL    HW236258   1.946   0.628  12.157
 1922SOL     OW36259   1.952   2.416  12.090
 1922SOL    HW136260   2.044   2.415  12.049
 1922SOL    HW236261   1.946   2.490  12.157
 1923SOL     OW36262   1.952   4.278  12.090
 1923SOL    HW136263   2.044   4.277  12.049
 1923SOL    HW236264   1.946   4.352  12.157
 1924SOL     OW36265   1.952   6.140  12.090
 1924SOL    HW136266   2.044   6.139  12.049
 1924SOL    HW236267   1.946   6.214  12.157
 1925SOL     OW36268   3.814   0.554  12.090
 1925SOL    HW136269   3.906   0.553  12.049
 1925SOL    HW236270   3.808   0.628  12.157
 1926SOL     OW36271   3.814   2.416  12.090
 1926SOL    HW136272   3.906   2.415  12.049
 1926SOL    HW236273   3.808   2.490  12.157
 1927SOL     OW36274   3.814   4.278  12.090
 1927SOL    HW136275   3.906   4.277  12.049
 1927SOL    HW236276   3.808   4.352  12.157
 1928SOL     OW36277   3.814   6.140  12.090
 1928SOL    HW136278   3.906   6.139  12.049
 1928SOL    HW236279   3.808   6.214  12.157
 1929SOL     OW36280   5.676   0.554  12.090
 1929SOL    HW136281   5.768   0.553  12.049
 1929SOL    HW236282   5.670   0.628  12.157
 1930SOL     OW36283   5.676   2.416  12.090
 1930SOL    HW136284   5.768   2.415  12.049
 1930SOL    HW236285   5.670   2.490  12.157
 1931SOL     OW36286   5.676   4.278  12.090
 1931SOL    HW136287   5.768   4.277  12.049
 1931SOL    HW236288   5.670   4.352  12.157
 1932SOL     OW36289   5.676   6.140  12.090
 1932SOL    HW136290   5.768   6.139  12.049
 1932SOL    HW236291   5.670   6.214  12.157
 1933SOL     OW36292   1.836   0.190   0.759
 1933SOL    HW136293   1.832   0.100   0.803
 1933SOL    HW236294   1.839   0.179   0.660
 1934SOL     OW36295   1.836   2.052   0.759
 1934SOL    HW136296   1.832   1.962   0.803
 1934SOL    HW236297   1.839   2.041   0.660
 1935SOL     OW36298   1.836   3.914   0.759
 1935SOL    HW136299   1.832   3.824   0.803
 1935SOL    HW236300   1.839   3.903   0.660
 1936SOL     OW36301   1.836   5.776   0.759
 1936SOL    HW136302   1.832   5.686   0.803
 1936SOL    HW236303   1.839   5.765   0.660
 1937SOL     OW36304   3.698   0.190   0.759
 1937SOL    HW136305   3.694   0.100   0.803
 1937SOL    HW236306   3.701   0.179   0.660
 1938SOL     OW36307   3.698   2.052   0.759
 1938SOL    HW136308   3.694   1.962   0.803
 1938SOL    HW236309   3.701   2.041   0.660
 1939SOL     OW36310   3.698   3.914   0.759
 1939SOL    HW136311   3.694   3.824   0.803
 1939SOL    HW236312   3.701   3.903   0.660
 1940SOL     OW36313   3.698   5.776   0.759
 1940SOL    HW136314   3.694   5.686   0.803
 1940SOL    HW236315   3.701   5.765   0.660
 1941SOL     OW36316   5.560   0.190   0.759
 1941SOL    HW136317   5.556   0.100   0.803
 1941SOL    HW236318   5.563   0.179   0.660
 1942SOL     OW36319   5.560   2.052   0.759
 1942SOL    HW136320   5.556   1.962   0.803
 1942SOL    HW236321   5.563   2.041   0.660
 1943SOL     OW36322   5.560   3.914   0.759
 1943SOL    HW136323   5.556   3.824   0.803
 1943SOL    HW236324   5.563   3.903   0.660
 1944SOL     OW36325   5.560   5.776   0.759
 1944SOL    HW136326   5.556   5.686   0.803
 1944SOL    HW236327   5.563   5.765   0.660
 1945SOL     OW36328   1.721   0.383  12.085
 1945SOL    HW136329   1.794   0.452  12.089
 1945SOL    HW236330   1.749   0.308  12.026
 1946SOL     OW36331   1.721   2.245  12.085
 1946SOL    HW136332   1.794   2.314  12.089
 1946SOL    HW236333   1.749   2.170  12.026
 1947SOL     OW36334   1.721   4.107  12.085
 1947SOL    HW136335   1.794   4.176  12.089
 1947SOL    HW236336   1.749   4.032  12.026
 1948SOL     OW36337   1.721   5.969  12.085
 1948SOL    HW136338   1.794   6.038  12.089
 1948SOL    HW236339   1.749   5.894  12.026
 1949SOL     OW36340   3.583   0.383  12.085
 1949SOL    HW136341   3.656   0.452  12.089
 1949SOL    HW236342   3.611   0.308  12.026
 1950SOL     OW36343   3.583   2.245  12.085
 1950SOL    HW136344   3.656   2.314  12.089
 1950SOL    HW236345   3.611   2.170  12.026
 1951SOL     OW36346   3.583   4.107  12.085
 1951SOL    HW136347   3.656   4.176  12.089
 1951SOL    HW236348   3.611   4.032  12.026
 1952SOL     OW36349   3.583   5.969  12.085
 1952SOL    HW136350   3.656   6.038  12.089
 1952SOL    HW236351   3.611   5.894  12.026
 1953SOL     OW36352   5.445   0.383  12.085
 1953SOL    HW136353   5.518   0.452  12.089
 1953SOL    HW236354   5.473   0.308  12.026
 1954SOL     OW36355   5.445   2.245  12.085
 1954SOL    HW136356   5.518   2.314  12.089
 1954SOL    HW236357   5.473   2.170  12.026
 1955SOL     OW36358   5.445   4.107  12.085
 1955SOL    HW136359   5.518   4.176  12.089
 1955SOL    HW236360   5.473   4.032  12.026
 1956SOL     OW36361   5.445   5.969  12.085
 1956SOL    HW136362   5.518   6.038  12.089
 1956SOL    HW236363   5.473   5.894  12.026
 1957SOL     OW36364   0.319   0.211   0.763
 1957SOL    HW136365   0.296   0.248   0.853
 1957SOL    HW236366   0.289   0.116   0.757
 1958SOL     OW36367   0.319   2.073   0.763
 1958SOL    HW136368   0.296   2.110   0.853
 1958SOL    HW236369   0.289   1.978   0.757
 1959SOL     OW36370   0.319   3.935   0.763
 1959SOL    HW136371   0.296   3.972   0.853
 1959SOL    HW236372   0.289   3.840   0.757
 1960SOL     OW36373   0.319   5.797   0.763
 1960SOL    HW136374   0.296   5.834   0.853
 1960SOL    HW236375   0.289   5.702   0.757
 1961SOL     OW36376   2.181   0.211   0.763
 1961SOL    HW136377   2.158   0.248   0.853
 1961SOL    HW236378   2.151   0.116   0.757
 1962SOL     OW36379   2.181   2.073   0.763
 1962SOL    HW136380   2.158   2.110   0.853
 1962SOL    HW236381   2.151   1.978   0.757
 1963SOL     OW36382   2.181   3.935   0.763
 1963SOL    HW136383   2.158   3.972   0.853
 1963SOL    HW236384   2.151   3.840   0.757
 1964SOL     OW36385   2.181   5.797   0.763
 1964SOL    HW136386   2.158   5.834   0.853
 1964SOL    HW236387   2.151   5.702   0.757
 1965SOL     OW36388   4.043   0.211   0.763
 1965SOL    HW136389   4.020   0.248   0.853
 1965SOL    HW236390   4.013   0.116   0.757
 1966SOL     OW36391   4.043   2.073   0.763
 1966SOL    HW136392   4.020   2.110   0.853
 1966SOL    HW236393   4.013   1.978   0.757
 1967SOL     OW36394   4.043   3.935   0.763
 1967SOL    HW136395   4.020   3.972   0.853
 1967SOL    HW236396   4.013   3.840   0.757
 1968SOL     OW36397   4.043   5.797   0.763
 1968SOL    HW136398   4.020   5.834   0.853
 1968SOL    HW236399   4.013   5.702   0.757
 1969SOL     OW36400   5.905   0.211   0.763
 1969SOL    HW136401   5.882   0.248   0.853
 1969SOL    HW236402   5.875   0.116   0.757
 1970SOL     OW36403   5.905   2.073   0.763
 1970SOL    HW136404   5.882   2.110   0.853
 1970SOL    HW236405   5.875   1.978   0.757
 1971SOL     OW36406   5.905   3.935   0.763
 1971SOL    HW136407   5.882   3.972   0.853
 1971SOL    HW236408   5.875   3.840   0.757
 1972SOL     OW36409   5.905   5.797   0.763
 1972SOL    HW136410   5.882   5.834   0.853
 1972SOL    HW236411   5.875   5.702   0.757
 1973SOL     OW36412   1.359   1.057   0.766
 1973SOL    HW136413   1.383   0.994   0.692
 1973SOL    HW236414   1.269   1.097   0.748
 1974SOL     OW36415   1.359   2.919   0.766
 1974SOL    HW136416   1.383   2.856   0.692
 1974SOL    HW236417   1.269   2.959   0.748
 1975SOL     OW36418   1.359   4.781   0.766
 1975SOL    HW136419   1.383   4.718   0.692
 1975SOL    HW236420   1.269   4.821   0.748
 1976SOL     OW36421   3.221   1.057   0.766
 1976SOL    HW136422   3.245   0.994   0.692
 1976SOL    HW236423   3.131   1.097   0.748
 1977SOL     OW36424   3.221   2.919   0.766
 1977SOL    HW136425   3.245   2.856   0.692
 1977SOL    HW236426   3.131   2.959   0.748
 1978SOL     OW36427   3.221   4.781   0.766
 1978SOL    HW136428   3.245   4.718   0.692
 1978SOL    HW236429   3.131   4.821   0.748
 1979SOL     OW36430   5.083   1.057   0.766
 1979SOL    HW136431   5.107   0.994   0.692
 1979SOL    HW236432   4.993   1.097   0.748
 1980SOL     OW36433   5.083   2.919   0.766
 1980SOL    HW136434   5.107   2.856   0.692
 1980SOL    HW236435   4.993   2.959   0.748
 1981SOL     OW36436   5.083   4.781   0.766
 1981SOL    HW136437   5.107   4.718   0.692
 1981SOL    HW236438   4.993   4.821   0.748
 1982SOL     OW36439   0.834   1.000  12.076
 1982SOL    HW136440   0.874   0.999  11.984
 1982SOL    HW236441   0.844   1.092  12.116
 1983SOL     OW36442   0.834   2.862  12.076
 1983SOL    HW136443   0.874   2.861  11.984
 1983SOL    HW236444   0.844   2.954  12.116
 1984SOL     OW36445   0.834   4.724  12.076
 1984SOL    HW136446   0.874   4.723  11.984
 1984SOL    HW236447   0.844   4.816  12.116
 1985SOL     OW36448   2.696   1.000  12.076
 1985SOL    HW136449   2.736   0.999  11.984
 1985SOL    HW236450   2.706   1.092  12.116
 1986SOL     OW36451   2.696   2.862  12.076
 1986SOL    HW136452   2.736   2.861  11.984
 1986SOL    HW236453   2.706   2.954  12.116
 1987SOL     OW36454   2.696   4.724  12.076
 1987SOL    HW136455   2.736   4.723  11.984
 1987SOL    HW236456   2.706   4.816  12.116
 1988SOL     OW36457   4.558   1.000  12.076
 1988SOL    HW136458   4.598   0.999  11.984
 1988SOL    HW236459   4.568   1.092  12.116
 1989SOL     OW36460   4.558   2.862  12.076
 1989SOL    HW136461   4.598   2.861  11.984
 1989SOL    HW236462   4.568   2.954  12.116
 1990SOL     OW36463   4.558   4.724  12.076
 1990SOL    HW136464   4.598   4.723  11.984
 1990SOL    HW236465   4.568   4.816  12.116
 1991SOL     OW36466   6.420   1.000  12.076
 1991SOL    HW136467   0.010   0.999  11.984
 1991SOL    HW236468   6.430   1.092  12.116
 1992SOL     OW36469   6.420   2.862  12.076
 1992SOL    HW136470   0.010   2.861  11.984
 1992SOL    HW236471   6.430   2.954  12.116
 1993SOL     OW36472   6.420   4.724  12.076
 1993SOL    HW136473   0.010   4.723  11.984
 1993SOL    HW236474   6.430   4.816  12.116
 1994SOL     OW36475   1.014   0.794   0.770
 1994SOL    HW136476   1.055   0.762   0.856
 1994SOL    HW236477   0.918   0.767   0.767
 1995SOL     OW36478   1.014   2.656   0.770
 1995SOL    HW136479   1.055   2.624   0.856
 1995SOL    HW236480   0.918   2.629   0.767
 1996SOL     OW36481   1.014   4.518   0.770
 1996SOL    HW136482   1.055   4.486   0.856
 1996SOL    HW236483   0.918   4.491   0.767
 1997SOL     OW36484   2.876   0.794   0.770
 1997SOL    HW136485   2.917   0.762   0.856
 1997SOL    HW236486   2.780   0.767   0.767
 1998SOL     OW36487   2.876   2.656   0.770
 1998SOL    HW136488   2.917   2.624   0.856
 1998SOL    HW236489   2.780   2.629   0.767
 1999SOL     OW36490   2.876   4.518   0.770
 1999SOL    HW136491   2.917   4.486   0.856
 1999SOL    HW236492   2.780   4.491   0.767
 2000SOL     OW36493   4.738   0.794   0.770
 2000SOL    HW136494   4.779   0.762   0.856
 2000SOL    HW236495   4.642   0.767   0.767
 2001SOL     OW36496   4.738   2.656   0.770
 2001SOL    HW136497   4.779   2.624   0.856
 2001SOL    HW236498   4.642   2.629   0.767
 2002SOL     OW36499   4.738   4.518   0.770
 2002SOL    HW136500   4.779   4.486   0.856
 2002SOL    HW236501   4.642   4.491   0.767
 2003SOL     OW36502   0.261   1.783   0.773
 2003SOL    HW136503   0.318   1.718   0.823
 2003SOL    HW236504   0.245   1.750   0.680
 2004SOL     OW36505   0.261   3.645   0.773
 2004SOL    HW136506   0.318   3.580   0.823
 2004SOL    HW236507   0.245   3.612   0.680
 2005SOL     OW36508   0.261   5.507   0.773
 2005SOL    HW136509   0.318   5.442   0.823
 2005SOL    HW236510   0.245   5.474   0.680
 2006SOL     OW36511   2.123   1.783   0.773
 2006SOL    HW136512   2.180   1.718   0.823
 2006SOL    HW236513   2.107   1.750   0.680
 2007SOL     OW36514   2.123   3.645   0.773
 2007SOL    HW136515   2.180   3.580   0.823
 2007SOL    HW236516   2.107   3.612   0.680
 2008SOL     OW36517   2.123   5.507   0.773
 2008SOL    HW136518   2.180   5.442   0.823
 2008SOL    HW236519   2.107   5.474   0.680
 2009SOL     OW36520   3.985   1.783   0.773
 2009SOL    HW136521   4.042   1.718   0.823
 2009SOL    HW236522   3.969   1.750   0.680
 2010SOL     OW36523   3.985   3.645   0.773
 2010SOL    HW136524   4.042   3.580   0.823
 2010SOL    HW236525   3.969   3.612   0.680
 2011SOL     OW36526   3.985   5.507   0.773
 2011SOL    HW136527   4.042   5.442   0.823
 2011SOL    HW236528   3.969   5.474   0.680
 2012SOL     OW36529   5.847   1.783   0.773
 2012SOL    HW136530   5.904   1.718   0.823
 2012SOL    HW236531   5.831   1.750   0.680
 2013SOL     OW36532   5.847   3.645   0.773
 2013SOL    HW136533   5.904   3.580   0.823
 2013SOL    HW236534   5.831   3.612   0.680
 2014SOL     OW36535   5.847   5.507   0.773
 2014SOL    HW136536   5.904   5.442   0.823
 2014SOL    HW236537   5.831   5.474   0.680
 2015SOL     OW36538   1.003   0.408   0.774
 2015SOL    HW136539   0.926   0.442   0.828
 2015SOL    HW236540   0.969   0.357   0.695
 2016SOL     OW36541   1.003   2.270   0.774
 2016SOL    HW136542   0.926   2.304   0.828
 2016SOL    HW236543   0.969   2.219   0.695
 2017SOL     OW36544   1.003   4.132   0.774
 2017SOL    HW136545   0.926   4.166   0.828
 2017SOL    HW236546   0.969   4.081   0.695
 2018SOL     OW36547   1.003   5.994   0.774
 2018SOL    HW136548   0.926   6.028   0.828
 2018SOL    HW236549   0.969   5.943   0.695
 2019SOL     OW36550   2.865   0.408   0.774
 2019SOL    HW136551   2.788   0.442   0.828
 2019SOL    HW236552   2.831   0.357   0.695
 2020SOL     OW36553   2.865   2.270   0.774
 2020SOL    HW136554   2.788   2.304   0.828
 2020SOL    HW236555   2.831   2.219   0.695
 2021SOL     OW36556   2.865   4.132   0.774
 2021SOL    HW136557   2.788   4.166   0.828
 2021SOL    HW236558   2.831   4.081   0.695
 2022SOL     OW36559   2.865   5.994   0.774
 2022SOL    HW136560   2.788   6.028   0.828
 2022SOL    HW236561   2.831   5.943   0.695
 2023SOL     OW36562   4.727   0.408   0.774
 2023SOL    HW136563   4.650   0.442   0.828
 2023SOL    HW236564   4.693   0.357   0.695
 2024SOL     OW36565   4.727   2.270   0.774
 2024SOL    HW136566   4.650   2.304   0.828
 2024SOL    HW236567   4.693   2.219   0.695
 2025SOL     OW36568   4.727   4.132   0.774
 2025SOL    HW136569   4.650   4.166   0.828
 2025SOL    HW236570   4.693   4.081   0.695
 2026SOL     OW36571   4.727   5.994   0.774
 2026SOL    HW136572   4.650   6.028   0.828
 2026SOL    HW236573   4.693   5.943   0.695
 2027SOL     OW36574   0.422   0.811   0.783
 2027SOL    HW136575   0.508   0.823   0.833
 2027SOL    HW236576   0.380   0.724   0.810
 2028SOL     OW36577   0.422   2.673   0.783
 2028SOL    HW136578   0.508   2.685   0.833
 2028SOL    HW236579   0.380   2.586   0.810
 2029SOL     OW36580   0.422   4.535   0.783
 2029SOL    HW136581   0.508   4.547   0.833
 2029SOL    HW236582   0.380   4.448   0.810
 2030SOL     OW36583   0.422   6.397   0.783
 2030SOL    HW136584   0.508   6.409   0.833
 2030SOL    HW236585   0.380   6.310   0.810
 2031SOL     OW36586   2.284   0.811   0.783
 2031SOL    HW136587   2.370   0.823   0.833
 2031SOL    HW236588   2.242   0.724   0.810
 2032SOL     OW36589   2.284   2.673   0.783
 2032SOL    HW136590   2.370   2.685   0.833
 2032SOL    HW236591   2.242   2.586   0.810
 2033SOL     OW36592   2.284   4.535   0.783
 2033SOL    HW136593   2.370   4.547   0.833
 2033SOL    HW236594   2.242   4.448   0.810
 2034SOL     OW36595   2.284   6.397   0.783
 2034SOL    HW136596   2.370   6.409   0.833
 2034SOL    HW236597   2.242   6.310   0.810
 2035SOL     OW36598   4.146   0.811   0.783
 2035SOL    HW136599   4.232   0.823   0.833
 2035SOL    HW236600   4.104   0.724   0.810
 2036SOL     OW36601   4.146   2.673   0.783
 2036SOL    HW136602   4.232   2.685   0.833
 2036SOL    HW236603   4.104   2.586   0.810
 2037SOL     OW36604   4.146   4.535   0.783
 2037SOL    HW136605   4.232   4.547   0.833
 2037SOL    HW236606   4.104   4.448   0.810
 2038SOL     OW36607   4.146   6.397   0.783
 2038SOL    HW136608   4.232   6.409   0.833
 2038SOL    HW236609   4.104   6.310   0.810
 2039SOL     OW36610   6.008   0.811   0.783
 2039SOL    HW136611   6.094   0.823   0.833
 2039SOL    HW236612   5.966   0.724   0.810
 2040SOL     OW36613   6.008   2.673   0.783
 2040SOL    HW136614   6.094   2.685   0.833
 2040SOL    HW236615   5.966   2.586   0.810
 2041SOL     OW36616   6.008   4.535   0.783
 2041SOL    HW136617   6.094   4.547   0.833
 2041SOL    HW236618   5.966   4.448   0.810
 2042SOL     OW36619   6.008   6.397   0.783
 2042SOL    HW136620   6.094   6.409   0.833
 2042SOL    HW236621   5.966   6.310   0.810
 2043SOL     OW36622   1.686   0.881   0.786
 2043SOL    HW136623   1.659   0.792   0.749
 2043SOL    HW236624   1.687   0.949   0.713
 2044SOL     OW36625   1.686   2.743   0.786
 2044SOL    HW136626   1.659   2.654   0.749
 2044SOL    HW236627   1.687   2.811   0.713
 2045SOL     OW36628   1.686   4.605   0.786
 2045SOL    HW136629   1.659   4.516   0.749
 2045SOL    HW236630   1.687   4.673   0.713
 2046SOL     OW36631   1.686   0.017   0.786
 2046SOL    HW136632   1.659   6.378   0.749
 2046SOL    HW236633   1.687   0.085   0.713
 2047SOL     OW36634   3.548   0.881   0.786
 2047SOL    HW136635   3.521   0.792   0.749
 2047SOL    HW236636   3.549   0.949   0.713
 2048SOL     OW36637   3.548   2.743   0.786
 2048SOL    HW136638   3.521   2.654   0.749
 2048SOL    HW236639   3.549   2.811   0.713
 2049SOL     OW36640   3.548   4.605   0.786
 2049SOL    HW136641   3.521   4.516   0.749
 2049SOL    HW236642   3.549   4.673   0.713
 2050SOL     OW36643   3.548   0.017   0.786
 2050SOL    HW136644   3.521   6.378   0.749
 2050SOL    HW236645   3.549   0.085   0.713
 2051SOL     OW36646   5.410   0.881   0.786
 2051SOL    HW136647   5.383   0.792   0.749
 2051SOL    HW236648   5.411   0.949   0.713
 2052SOL     OW36649   5.410   2.743   0.786
 2052SOL    HW136650   5.383   2.654   0.749
 2052SOL    HW236651   5.411   2.811   0.713
 2053SOL     OW36652   5.410   4.605   0.786
 2053SOL    HW136653   5.383   4.516   0.749
 2053SOL    HW236654   5.411   4.673   0.713
 2054SOL     OW36655   5.410   0.017   0.786
 2054SOL    HW136656   5.383   6.378   0.749
 2054SOL    HW236657   5.411   0.085   0.713
 2055SOL     OW36658   1.286   0.384   0.794
 2055SOL    HW136659   1.307   0.458   0.858
 2055SOL    HW236660   1.197   0.401   0.751
 2056SOL     OW36661   1.286   2.246   0.794
 2056SOL    HW136662   1.307   2.320   0.858
 2056SOL    HW236663   1.197   2.263   0.751
 2057SOL     OW36664   1.286   4.108   0.794
 2057SOL    HW136665   1.307   4.182   0.858
 2057SOL    HW236666   1.197   4.125   0.751
 2058SOL     OW36667   1.286   5.970   0.794
 2058SOL    HW136668   1.307   6.044   0.858
 2058SOL    HW236669   1.197   5.987   0.751
 2059SOL     OW36670   3.148   0.384   0.794
 2059SOL    HW136671   3.169   0.458   0.858
 2059SOL    HW236672   3.059   0.401   0.751
 2060SOL     OW36673   3.148   2.246   0.794
 2060SOL    HW136674   3.169   2.320   0.858
 2060SOL    HW236675   3.059   2.263   0.751
 2061SOL     OW36676   3.148   4.108   0.794
 2061SOL    HW136677   3.169   4.182   0.858
 2061SOL    HW236678   3.059   4.125   0.751
 2062SOL     OW36679   3.148   5.970   0.794
 2062SOL    HW136680   3.169   6.044   0.858
 2062SOL    HW236681   3.059   5.987   0.751
 2063SOL     OW36682   5.010   0.384   0.794
 2063SOL    HW136683   5.031   0.458   0.858
 2063SOL    HW236684   4.921   0.401   0.751
 2064SOL     OW36685   5.010   2.246   0.794
 2064SOL    HW136686   5.031   2.320   0.858
 2064SOL    HW236687   4.921   2.263   0.751
 2065SOL     OW36688   5.010   4.108   0.794
 2065SOL    HW136689   5.031   4.182   0.858
 2065SOL    HW236690   4.921   4.125   0.751
 2066SOL     OW36691   5.010   5.970   0.794
 2066SOL    HW136692   5.031   6.044   0.858
 2066SOL    HW236693   4.921   5.987   0.751
 2067SOL     OW36694   0.209   0.974   0.796
 2067SOL    HW136695   0.298   0.929   0.782
 2067SOL    HW236696   0.136   0.909   0.777
 2068SOL     OW36697   0.209   2.836   0.796
 2068SOL    HW136698   0.298   2.791   0.782
 2068SOL    HW236699   0.136   2.771   0.777
 2069SOL     OW36700   0.209   4.698   0.796
 2069SOL    HW136701   0.298   4.653   0.782
 2069SOL    HW236702   0.136   4.633   0.777
 2070SOL     OW36703   2.071   0.974   0.796
 2070SOL    HW136704   2.160   0.929   0.782
 2070SOL    HW236705   1.998   0.909   0.777
 2071SOL     OW36706   2.071   2.836   0.796
 2071SOL    HW136707   2.160   2.791   0.782
 2071SOL    HW236708   1.998   2.771   0.777
 2072SOL     OW36709   2.071   4.698   0.796
 2072SOL    HW136710   2.160   4.653   0.782
 2072SOL    HW236711   1.998   4.633   0.777
 2073SOL     OW36712   3.933   0.974   0.796
 2073SOL    HW136713   4.022   0.929   0.782
 2073SOL    HW236714   3.860   0.909   0.777
 2074SOL     OW36715   3.933   2.836   0.796
 2074SOL    HW136716   4.022   2.791   0.782
 2074SOL    HW236717   3.860   2.771   0.777
 2075SOL     OW36718   3.933   4.698   0.796
 2075SOL    HW136719   4.022   4.653   0.782
 2075SOL    HW236720   3.860   4.633   0.777
 2076SOL     OW36721   5.795   0.974   0.796
 2076SOL    HW136722   5.884   0.929   0.782
 2076SOL    HW236723   5.722   0.909   0.777
 2077SOL     OW36724   5.795   2.836   0.796
 2077SOL    HW136725   5.884   2.791   0.782
 2077SOL    HW236726   5.722   2.771   0.777
 2078SOL     OW36727   5.795   4.698   0.796
 2078SOL    HW136728   5.884   4.653   0.782
 2078SOL    HW236729   5.722   4.633   0.777
 2079SOL     OW36730   0.683   0.462   0.801
 2079SOL    HW136731   0.649   0.373   0.771
 2079SOL    HW236732   0.709   0.516   0.721
 2080SOL     OW36733   0.683   2.324   0.801
 2080SOL    HW136734   0.649   2.235   0.771
 2080SOL    HW236735   0.709   2.378   0.721
 2081SOL     OW36736   0.683   4.186   0.801
 2081SOL    HW136737   0.649   4.097   0.771
 2081SOL    HW236738   0.709   4.240   0.721
 2082SOL     OW36739   0.683   6.048   0.801
 2082SOL    HW136740   0.649   5.959   0.771
 2082SOL    HW236741   0.709   6.102   0.721
 2083SOL     OW36742   2.545   0.462   0.801
 2083SOL    HW136743   2.511   0.373   0.771
 2083SOL    HW236744   2.571   0.516   0.721
 2084SOL     OW36745   2.545   2.324   0.801
 2084SOL    HW136746   2.511   2.235   0.771
 2084SOL    HW236747   2.571   2.378   0.721
 2085SOL     OW36748   2.545   4.186   0.801
 2085SOL    HW136749   2.511   4.097   0.771
 2085SOL    HW236750   2.571   4.240   0.721
 2086SOL     OW36751   2.545   6.048   0.801
 2086SOL    HW136752   2.511   5.959   0.771
 2086SOL    HW236753   2.571   6.102   0.721
 2087SOL     OW36754   4.407   0.462   0.801
 2087SOL    HW136755   4.373   0.373   0.771
 2087SOL    HW236756   4.433   0.516   0.721
 2088SOL     OW36757   4.407   2.324   0.801
 2088SOL    HW136758   4.373   2.235   0.771
 2088SOL    HW236759   4.433   2.378   0.721
 2089SOL     OW36760   4.407   4.186   0.801
 2089SOL    HW136761   4.373   4.097   0.771
 2089SOL    HW236762   4.433   4.240   0.721
 2090SOL     OW36763   4.407   6.048   0.801
 2090SOL    HW136764   4.373   5.959   0.771
 2090SOL    HW236765   4.433   6.102   0.721
 2091SOL     OW36766   6.269   0.462   0.801
 2091SOL    HW136767   6.235   0.373   0.771
 2091SOL    HW236768   6.295   0.516   0.721
 2092SOL     OW36769   6.269   2.324   0.801
 2092SOL    HW136770   6.235   2.235   0.771
 2092SOL    HW236771   6.295   2.378   0.721
 2093SOL     OW36772   6.269   4.186   0.801
 2093SOL    HW136773   6.235   4.097   0.771
 2093SOL    HW236774   6.295   4.240   0.721
 2094SOL     OW36775   6.269   6.048   0.801
 2094SOL    HW136776   6.235   5.959   0.771
 2094SOL    HW236777   6.295   6.102   0.721
 2095SOL     OW36778   1.076   1.345  12.044
 2095SOL    HW136779   0.996   1.322  12.099
 2095SOL    HW236780   1.159   1.319  12.093
 2096SOL     OW36781   1.076   3.207  12.044
 2096SOL    HW136782   0.996   3.184  12.099
 2096SOL    HW236783   1.159   3.181  12.093
 2097SOL     OW36784   1.076   5.069  12.044
 2097SOL    HW136785   0.996   5.046  12.099
 2097SOL    HW236786   1.159   5.043  12.093
 2098SOL     OW36787   2.938   1.345  12.044
 2098SOL    HW136788   2.858   1.322  12.099
 2098SOL    HW236789   3.021   1.319  12.093
 2099SOL     OW36790   2.938   3.207  12.044
 2099SOL    HW136791   2.858   3.184  12.099
 2099SOL    HW236792   3.021   3.181  12.093
 2100SOL     OW36793   2.938   5.069  12.044
 2100SOL    HW136794   2.858   5.046  12.099
 2100SOL    HW236795   3.021   5.043  12.093
 2101SOL     OW36796   4.800   1.345  12.044
 2101SOL    HW136797   4.720   1.322  12.099
 2101SOL    HW236798   4.883   1.319  12.093
 2102SOL     OW36799   4.800   3.207  12.044
 2102SOL    HW136800   4.720   3.184  12.099
 2102SOL    HW236801   4.883   3.181  12.093
 2103SOL     OW36802   4.800   5.069  12.044
 2103SOL    HW136803   4.720   5.046  12.099
 2103SOL    HW236804   4.883   5.043  12.093
 2104SOL     OW36805   1.472   1.503  12.043
 2104SOL    HW136806   1.496   1.597  12.069
 2104SOL    HW236807   1.456   1.449  12.125
 2105SOL     OW36808   1.472   3.365  12.043
 2105SOL    HW136809   1.496   3.459  12.069
 2105SOL    HW236810   1.456   3.311  12.125
 2106SOL     OW36811   1.472   5.227  12.043
 2106SOL    HW136812   1.496   5.321  12.069
 2106SOL    HW236813   1.456   5.173  12.125
 2107SOL     OW36814   3.334   1.503  12.043
 2107SOL    HW136815   3.358   1.597  12.069
 2107SOL    HW236816   3.318   1.449  12.125
 2108SOL     OW36817   3.334   3.365  12.043
 2108SOL    HW136818   3.358   3.459  12.069
 2108SOL    HW236819   3.318   3.311  12.125
 2109SOL     OW36820   3.334   5.227  12.043
 2109SOL    HW136821   3.358   5.321  12.069
 2109SOL    HW236822   3.318   5.173  12.125
 2110SOL     OW36823   5.196   1.503  12.043
 2110SOL    HW136824   5.220   1.597  12.069
 2110SOL    HW236825   5.180   1.449  12.125
 2111SOL     OW36826   5.196   3.365  12.043
 2111SOL    HW136827   5.220   3.459  12.069
 2111SOL    HW236828   5.180   3.311  12.125
 2112SOL     OW36829   5.196   5.227  12.043
 2112SOL    HW136830   5.220   5.321  12.069
 2112SOL    HW236831   5.180   5.173  12.125
 2113SOL     OW36832   0.076   1.562  12.035
 2113SOL    HW136833   0.030   1.644  12.001
 2113SOL    HW236834   0.174   1.581  12.044
 2114SOL     OW36835   0.076   3.424  12.035
 2114SOL    HW136836   0.030   3.506  12.001
 2114SOL    HW236837   0.174   3.443  12.044
 2115SOL     OW36838   0.076   5.286  12.035
 2115SOL    HW136839   0.030   5.368  12.001
 2115SOL    HW236840   0.174   5.305  12.044
 2116SOL     OW36841   1.938   1.562  12.035
 2116SOL    HW136842   1.892   1.644  12.001
 2116SOL    HW236843   2.036   1.581  12.044
 2117SOL     OW36844   1.938   3.424  12.035
 2117SOL    HW136845   1.892   3.506  12.001
 2117SOL    HW236846   2.036   3.443  12.044
 2118SOL     OW36847   1.938   5.286  12.035
 2118SOL    HW136848   1.892   5.368  12.001
 2118SOL    HW236849   2.036   5.305  12.044
 2119SOL     OW36850   3.800   1.562  12.035
 2119SOL    HW136851   3.754   1.644  12.001
 2119SOL    HW236852   3.898   1.581  12.044
 2120SOL     OW36853   3.800   3.424  12.035
 2120SOL    HW136854   3.754   3.506  12.001
 2120SOL    HW236855   3.898   3.443  12.044
 2121SOL     OW36856   3.800   5.286  12.035
 2121SOL    HW136857   3.754   5.368  12.001
 2121SOL    HW236858   3.898   5.305  12.044
 2122SOL     OW36859   5.662   1.562  12.035
 2122SOL    HW136860   5.616   1.644  12.001
 2122SOL    HW236861   5.760   1.581  12.044
 2123SOL     OW36862   5.662   3.424  12.035
 2123SOL    HW136863   5.616   3.506  12.001
 2123SOL    HW236864   5.760   3.443  12.044
 2124SOL     OW36865   5.662   5.286  12.035
 2124SOL    HW136866   5.616   5.368  12.001
 2124SOL    HW236867   5.760   5.305  12.044
 2125SOL     OW36868   0.329   0.545   0.812
 2125SOL    HW136869   0.367   0.486   0.884
 2125SOL    HW236870   0.369   0.519   0.724
 2126SOL     OW36871   0.329   2.407   0.812
 2126SOL    HW136872   0.367   2.348   0.884
 2126SOL    HW236873   0.369   2.381   0.724
 2127SOL     OW36874   0.329   4.269   0.812
 2127SOL    HW136875   0.367   4.210   0.884
 2127SOL    HW236876   0.369   4.243   0.724
 2128SOL     OW36877   0.329   6.131   0.812
 2128SOL    HW136878   0.367   6.072   0.884
 2128SOL    HW236879   0.369   6.105   0.724
 2129SOL     OW36880   2.191   0.545   0.812
 2129SOL    HW136881   2.229   0.486   0.884
 2129SOL    HW236882   2.231   0.519   0.724
 2130SOL     OW36883   2.191   2.407   0.812
 2130SOL    HW136884   2.229   2.348   0.884
 2130SOL    HW236885   2.231   2.381   0.724
 2131SOL     OW36886   2.191   4.269   0.812
 2131SOL    HW136887   2.229   4.210   0.884
 2131SOL    HW236888   2.231   4.243   0.724
 2132SOL     OW36889   2.191   6.131   0.812
 2132SOL    HW136890   2.229   6.072   0.884
 2132SOL    HW236891   2.231   6.105   0.724
 2133SOL     OW36892   4.053   0.545   0.812
 2133SOL    HW136893   4.091   0.486   0.884
 2133SOL    HW236894   4.093   0.519   0.724
 2134SOL     OW36895   4.053   2.407   0.812
 2134SOL    HW136896   4.091   2.348   0.884
 2134SOL    HW236897   4.093   2.381   0.724
 2135SOL     OW36898   4.053   4.269   0.812
 2135SOL    HW136899   4.091   4.210   0.884
 2135SOL    HW236900   4.093   4.243   0.724
 2136SOL     OW36901   4.053   6.131   0.812
 2136SOL    HW136902   4.091   6.072   0.884
 2136SOL    HW236903   4.093   6.105   0.724
 2137SOL     OW36904   5.915   0.545   0.812
 2137SOL    HW136905   5.953   0.486   0.884
 2137SOL    HW236906   5.955   0.519   0.724
 2138SOL     OW36907   5.915   2.407   0.812
 2138SOL    HW136908   5.953   2.348   0.884
 2138SOL    HW236909   5.955   2.381   0.724
 2139SOL     OW36910   5.915   4.269   0.812
 2139SOL    HW136911   5.953   4.210   0.884
 2139SOL    HW236912   5.955   4.243   0.724
 2140SOL     OW36913   5.915   6.131   0.812
 2140SOL    HW136914   5.953   6.072   0.884
 2140SOL    HW236915   5.955   6.105   0.724
 2141SOL     OW36916   0.366   1.508  12.033
 2141SOL    HW136917   0.345   1.464  11.946
 2141SOL    HW236918   0.463   1.534  12.036
 2142SOL     OW36919   0.366   3.370  12.033
 2142SOL    HW136920   0.345   3.326  11.946
 2142SOL    HW236921   0.463   3.396  12.036
 2143SOL     OW36922   0.366   5.232  12.033
 2143SOL    HW136923   0.345   5.188  11.946
 2143SOL    HW236924   0.463   5.258  12.036
 2144SOL     OW36925   2.228   1.508  12.033
 2144SOL    HW136926   2.207   1.464  11.946
 2144SOL    HW236927   2.325   1.534  12.036
 2145SOL     OW36928   2.228   3.370  12.033
 2145SOL    HW136929   2.207   3.326  11.946
 2145SOL    HW236930   2.325   3.396  12.036
 2146SOL     OW36931   2.228   5.232  12.033
 2146SOL    HW136932   2.207   5.188  11.946
 2146SOL    HW236933   2.325   5.258  12.036
 2147SOL     OW36934   4.090   1.508  12.033
 2147SOL    HW136935   4.069   1.464  11.946
 2147SOL    HW236936   4.187   1.534  12.036
 2148SOL     OW36937   4.090   3.370  12.033
 2148SOL    HW136938   4.069   3.326  11.946
 2148SOL    HW236939   4.187   3.396  12.036
 2149SOL     OW36940   4.090   5.232  12.033
 2149SOL    HW136941   4.069   5.188  11.946
 2149SOL    HW236942   4.187   5.258  12.036
 2150SOL     OW36943   5.952   1.508  12.033
 2150SOL    HW136944   5.931   1.464  11.946
 2150SOL    HW236945   6.049   1.534  12.036
 2151SOL     OW36946   5.952   3.370  12.033
 2151SOL    HW136947   5.931   3.326  11.946
 2151SOL    HW236948   6.049   3.396  12.036
 2152SOL     OW36949   5.952   5.232  12.033
 2152SOL    HW136950   5.931   5.188  11.946
 2152SOL    HW236951   6.049   5.258  12.036
 2153SOL     OW36952   0.049   1.308   0.814
 2153SOL    HW136953   0.102   1.259   0.882
 2153SOL    HW236954   0.071   1.406   0.819
 2154SOL     OW36955   0.049   3.170   0.814
 2154SOL    HW136956   0.102   3.121   0.882
 2154SOL    HW236957   0.071   3.268   0.819
 2155SOL     OW36958   0.049   5.032   0.814
 2155SOL    HW136959   0.102   4.983   0.882
 2155SOL    HW236960   0.071   5.130   0.819
 2156SOL     OW36961   1.911   1.308   0.814
 2156SOL    HW136962   1.964   1.259   0.882
 2156SOL    HW236963   1.933   1.406   0.819
 2157SOL     OW36964   1.911   3.170   0.814
 2157SOL    HW136965   1.964   3.121   0.882
 2157SOL    HW236966   1.933   3.268   0.819
 2158SOL     OW36967   1.911   5.032   0.814
 2158SOL    HW136968   1.964   4.983   0.882
 2158SOL    HW236969   1.933   5.130   0.819
 2159SOL     OW36970   3.773   1.308   0.814
 2159SOL    HW136971   3.826   1.259   0.882
 2159SOL    HW236972   3.795   1.406   0.819
 2160SOL     OW36973   3.773   3.170   0.814
 2160SOL    HW136974   3.826   3.121   0.882
 2160SOL    HW236975   3.795   3.268   0.819
 2161SOL     OW36976   3.773   5.032   0.814
 2161SOL    HW136977   3.826   4.983   0.882
 2161SOL    HW236978   3.795   5.130   0.819
 2162SOL     OW36979   5.635   1.308   0.814
 2162SOL    HW136980   5.688   1.259   0.882
 2162SOL    HW236981   5.657   1.406   0.819
 2163SOL     OW36982   5.635   3.170   0.814
 2163SOL    HW136983   5.688   3.121   0.882
 2163SOL    HW236984   5.657   3.268   0.819
 2164SOL     OW36985   5.635   5.032   0.814
 2164SOL    HW136986   5.688   4.983   0.882
 2164SOL    HW236987   5.657   5.130   0.819
 2165SOL     OW36988   0.630   1.565   0.816
 2165SOL    HW136989   0.625   1.647   0.873
 2165SOL    HW236990   0.719   1.562   0.771
 2166SOL     OW36991   0.630   3.427   0.816
 2166SOL    HW136992   0.625   3.509   0.873
 2166SOL    HW236993   0.719   3.424   0.771
 2167SOL     OW36994   0.630   5.289   0.816
 2167SOL    HW136995   0.625   5.371   0.873
 2167SOL    HW236996   0.719   5.286   0.771
 2168SOL     OW36997   2.492   1.565   0.816
 2168SOL    HW136998   2.487   1.647   0.873
 2168SOL    HW236999   2.581   1.562   0.771
 2169SOL     OW37000   2.492   3.427   0.816
 2169SOL    HW137001   2.487   3.509   0.873
 2169SOL    HW237002   2.581   3.424   0.771
 2170SOL     OW37003   2.492   5.289   0.816
 2170SOL    HW137004   2.487   5.371   0.873
 2170SOL    HW237005   2.581   5.286   0.771
 2171SOL     OW37006   4.354   1.565   0.816
 2171SOL    HW137007   4.349   1.647   0.873
 2171SOL    HW237008   4.443   1.562   0.771
 2172SOL     OW37009   4.354   3.427   0.816
 2172SOL    HW137010   4.349   3.509   0.873
 2172SOL    HW237011   4.443   3.424   0.771
 2173SOL     OW37012   4.354   5.289   0.816
 2173SOL    HW137013   4.349   5.371   0.873
 2173SOL    HW237014   4.443   5.286   0.771
 2174SOL     OW37015   6.216   1.565   0.816
 2174SOL    HW137016   6.211   1.647   0.873
 2174SOL    HW237017   6.305   1.562   0.771
 2175SOL     OW37018   6.216   3.427   0.816
 2175SOL    HW137019   6.211   3.509   0.873
 2175SOL    HW237020   6.305   3.424   0.771
 2176SOL     OW37021   6.216   5.289   0.816
 2176SOL    HW137022   6.211   5.371   0.873
 2176SOL    HW237023   6.305   5.286   0.771
 2177SOL     OW37024   1.626   1.290   0.821
 2177SOL    HW137025   1.686   1.293   0.901
 2177SOL    HW237026   1.551   1.354   0.834
 2178SOL     OW37027   1.626   3.152   0.821
 2178SOL    HW137028   1.686   3.155   0.901
 2178SOL    HW237029   1.551   3.216   0.834
 2179SOL     OW37030   1.626   5.014   0.821
 2179SOL    HW137031   1.686   5.017   0.901
 2179SOL    HW237032   1.551   5.078   0.834
 2180SOL     OW37033   3.488   1.290   0.821
 2180SOL    HW137034   3.548   1.293   0.901
 2180SOL    HW237035   3.413   1.354   0.834
 2181SOL     OW37036   3.488   3.152   0.821
 2181SOL    HW137037   3.548   3.155   0.901
 2181SOL    HW237038   3.413   3.216   0.834
 2182SOL     OW37039   3.488   5.014   0.821
 2182SOL    HW137040   3.548   5.017   0.901
 2182SOL    HW237041   3.413   5.078   0.834
 2183SOL     OW37042   5.350   1.290   0.821
 2183SOL    HW137043   5.410   1.293   0.901
 2183SOL    HW237044   5.275   1.354   0.834
 2184SOL     OW37045   5.350   3.152   0.821
 2184SOL    HW137046   5.410   3.155   0.901
 2184SOL    HW237047   5.275   3.216   0.834
 2185SOL     OW37048   5.350   5.014   0.821
 2185SOL    HW137049   5.410   5.017   0.901
 2185SOL    HW237050   5.275   5.078   0.834
 2186SOL     OW37051   1.626   1.290  11.993
 2186SOL    HW137052   1.686   1.293  12.073
 2186SOL    HW237053   1.551   1.354  12.006
 2187SOL     OW37054   1.626   3.152  11.993
 2187SOL    HW137055   1.686   3.155  12.073
 2187SOL    HW237056   1.551   3.216  12.006
 2188SOL     OW37057   1.626   5.014  11.993
 2188SOL    HW137058   1.686   5.017  12.073
 2188SOL    HW237059   1.551   5.078  12.006
 2189SOL     OW37060   3.488   1.290  11.993
 2189SOL    HW137061   3.548   1.293  12.073
 2189SOL    HW237062   3.413   1.354  12.006
 2190SOL     OW37063   3.488   3.152  11.993
 2190SOL    HW137064   3.548   3.155  12.073
 2190SOL    HW237065   3.413   3.216  12.006
 2191SOL     OW37066   3.488   5.014  11.993
 2191SOL    HW137067   3.548   5.017  12.073
 2191SOL    HW237068   3.413   5.078  12.006
 2192SOL     OW37069   5.350   1.290  11.993
 2192SOL    HW137070   5.410   1.293  12.073
 2192SOL    HW237071   5.275   1.354  12.006
 2193SOL     OW37072   5.350   3.152  11.993
 2193SOL    HW137073   5.410   3.155  12.073
 2193SOL    HW237074   5.275   3.216  12.006
 2194SOL     OW37075   5.350   5.014  11.993
 2194SOL    HW137076   5.410   5.017  12.073
 2194SOL    HW237077   5.275   5.078  12.006
 2195SOL     OW37078   0.630   1.565  11.988
 2195SOL    HW137079   0.625   1.647  12.045
 2195SOL    HW237080   0.719   1.562  11.943
 2196SOL     OW37081   0.630   3.427  11.988
 2196SOL    HW137082   0.625   3.509  12.045
 2196SOL    HW237083   0.719   3.424  11.943
 2197SOL     OW37084   0.630   5.289  11.988
 2197SOL    HW137085   0.625   5.371  12.045
 2197SOL    HW237086   0.719   5.286  11.943
 2198SOL     OW37087   2.492   1.565  11.988
 2198SOL    HW137088   2.487   1.647  12.045
 2198SOL    HW237089   2.581   1.562  11.943
 2199SOL     OW37090   2.492   3.427  11.988
 2199SOL    HW137091   2.487   3.509  12.045
 2199SOL    HW237092   2.581   3.424  11.943
 2200SOL     OW37093   2.492   5.289  11.988
 2200SOL    HW137094   2.487   5.371  12.045
 2200SOL    HW237095   2.581   5.286  11.943
 2201SOL     OW37096   4.354   1.565  11.988
 2201SOL    HW137097   4.349   1.647  12.045
 2201SOL    HW237098   4.443   1.562  11.943
 2202SOL     OW37099   4.354   3.427  11.988
 2202SOL    HW137100   4.349   3.509  12.045
 2202SOL    HW237101   4.443   3.424  11.943
 2203SOL     OW37102   4.354   5.289  11.988
 2203SOL    HW137103   4.349   5.371  12.045
 2203SOL    HW237104   4.443   5.286  11.943
 2204SOL     OW37105   6.216   1.565  11.988
 2204SOL    HW137106   6.211   1.647  12.045
 2204SOL    HW237107   6.305   1.562  11.943
 2205SOL     OW37108   6.216   3.427  11.988
 2205SOL    HW137109   6.211   3.509  12.045
 2205SOL    HW237110   6.305   3.424  11.943
 2206SOL     OW37111   6.216   5.289  11.988
 2206SOL    HW137112   6.211   5.371  12.045
 2206SOL    HW237113   6.305   5.286  11.943
 2207SOL     OW37114   0.049   1.308  11.986
 2207SOL    HW137115   0.102   1.259  12.054
 2207SOL    HW237116   0.071   1.406  11.991
 2208SOL     OW37117   0.049   3.170  11.986
 2208SOL    HW137118   0.102   3.121  12.054
 2208SOL    HW237119   0.071   3.268  11.991
 2209SOL     OW37120   0.049   5.032  11.986
 2209SOL    HW137121   0.102   4.983  12.054
 2209SOL    HW237122   0.071   5.130  11.991
 2210SOL     OW37123   1.911   1.308  11.986
 2210SOL    HW137124   1.964   1.259  12.054
 2210SOL    HW237125   1.933   1.406  11.991
 2211SOL     OW37126   1.911   3.170  11.986
 2211SOL    HW137127   1.964   3.121  12.054
 2211SOL    HW237128   1.933   3.268  11.991
 2212SOL     OW37129   1.911   5.032  11.986
 2212SOL    HW137130   1.964   4.983  12.054
 2212SOL    HW237131   1.933   5.130  11.991
 2213SOL     OW37132   3.773   1.308  11.986
 2213SOL    HW137133   3.826   1.259  12.054
 2213SOL    HW237134   3.795   1.406  11.991
 2214SOL     OW37135   3.773   3.170  11.986
 2214SOL    HW137136   3.826   3.121  12.054
 2214SOL    HW237137   3.795   3.268  11.991
 2215SOL     OW37138   3.773   5.032  11.986
 2215SOL    HW137139   3.826   4.983  12.054
 2215SOL    HW237140   3.795   5.130  11.991
 2216SOL     OW37141   5.635   1.308  11.986
 2216SOL    HW137142   5.688   1.259  12.054
 2216SOL    HW237143   5.657   1.406  11.991
 2217SOL     OW37144   5.635   3.170  11.986
 2217SOL    HW137145   5.688   3.121  12.054
 2217SOL    HW237146   5.657   3.268  11.991
 2218SOL     OW37147   5.635   5.032  11.986
 2218SOL    HW137148   5.688   4.983  12.054
 2218SOL    HW237149   5.657   5.130  11.991
 2219SOL     OW37150   0.366   1.508   0.861
 2219SOL    HW137151   0.345   1.464   0.774
 2219SOL    HW237152   0.463   1.534   0.864
 2220SOL     OW37153   0.366   3.370   0.861
 2220SOL    HW137154   0.345   3.326   0.774
 2220SOL    HW237155   0.463   3.396   0.864
 2221SOL     OW37156   0.366   5.232   0.861
 2221SOL    HW137157   0.345   5.188   0.774
 2221SOL    HW237158   0.463   5.258   0.864
 2222SOL     OW37159   2.228   1.508   0.861
 2222SOL    HW137160   2.207   1.464   0.774
 2222SOL    HW237161   2.325   1.534   0.864
 2223SOL     OW37162   2.228   3.370   0.861
 2223SOL    HW137163   2.207   3.326   0.774
 2223SOL    HW237164   2.325   3.396   0.864
 2224SOL     OW37165   2.228   5.232   0.861
 2224SOL    HW137166   2.207   5.188   0.774
 2224SOL    HW237167   2.325   5.258   0.864
 2225SOL     OW37168   4.090   1.508   0.861
 2225SOL    HW137169   4.069   1.464   0.774
 2225SOL    HW237170   4.187   1.534   0.864
 2226SOL     OW37171   4.090   3.370   0.861
 2226SOL    HW137172   4.069   3.326   0.774
 2226SOL    HW237173   4.187   3.396   0.864
 2227SOL     OW37174   4.090   5.232   0.861
 2227SOL    HW137175   4.069   5.188   0.774
 2227SOL    HW237176   4.187   5.258   0.864
 2228SOL     OW37177   5.952   1.508   0.861
 2228SOL    HW137178   5.931   1.464   0.774
 2228SOL    HW237179   6.049   1.534   0.864
 2229SOL     OW37180   5.952   3.370   0.861
 2229SOL    HW137181   5.931   3.326   0.774
 2229SOL    HW237182   6.049   3.396   0.864
 2230SOL     OW37183   5.952   5.232   0.861
 2230SOL    HW137184   5.931   5.188   0.774
 2230SOL    HW237185   6.049   5.258   0.864
 2231SOL     OW37186   0.329   0.545  11.984
 2231SOL    HW137187   0.367   0.486  12.056
 2231SOL    HW237188   0.369   0.519  11.896
 2232SOL     OW37189   0.329   2.407  11.984
 2232SOL    HW137190   0.367   2.348  12.056
 2232SOL    HW237191   0.369   2.381  11.896
 2233SOL     OW37192   0.329   4.269  11.984
 2233SOL    HW137193   0.367   4.210  12.056
 2233SOL    HW237194   0.369   4.243  11.896
 2234SOL     OW37195   0.329   6.131  11.984
 2234SOL    HW137196   0.367   6.072  12.056
 2234SOL    HW237197   0.369   6.105  11.896
 2235SOL     OW37198   2.191   0.545  11.984
 2235SOL    HW137199   2.229   0.486  12.056
 2235SOL    HW237200   2.231   0.519  11.896
 2236SOL     OW37201   2.191   2.407  11.984
 2236SOL    HW137202   2.229   2.348  12.056
 2236SOL    HW237203   2.231   2.381  11.896
 2237SOL     OW37204   2.191   4.269  11.984
 2237SOL    HW137205   2.229   4.210  12.056
 2237SOL    HW237206   2.231   4.243  11.896
 2238SOL     OW37207   2.191   6.131  11.984
 2238SOL    HW137208   2.229   6.072  12.056
 2238SOL    HW237209   2.231   6.105  11.896
 2239SOL     OW37210   4.053   0.545  11.984
 2239SOL    HW137211   4.091   0.486  12.056
 2239SOL    HW237212   4.093   0.519  11.896
 2240SOL     OW37213   4.053   2.407  11.984
 2240SOL    HW137214   4.091   2.348  12.056
 2240SOL    HW237215   4.093   2.381  11.896
 2241SOL     OW37216   4.053   4.269  11.984
 2241SOL    HW137217   4.091   4.210  12.056
 2241SOL    HW237218   4.093   4.243  11.896
 2242SOL     OW37219   4.053   6.131  11.984
 2242SOL    HW137220   4.091   6.072  12.056
 2242SOL    HW237221   4.093   6.105  11.896
 2243SOL     OW37222   5.915   0.545  11.984
 2243SOL    HW137223   5.953   0.486  12.056
 2243SOL    HW237224   5.955   0.519  11.896
 2244SOL     OW37225   5.915   2.407  11.984
 2244SOL    HW137226   5.953   2.348  12.056
 2244SOL    HW237227   5.955   2.381  11.896
 2245SOL     OW37228   5.915   4.269  11.984
 2245SOL    HW137229   5.953   4.210  12.056
 2245SOL    HW237230   5.955   4.243  11.896
 2246SOL     OW37231   5.915   6.131  11.984
 2246SOL    HW137232   5.953   6.072  12.056
 2246SOL    HW237233   5.955   6.105  11.896
 2247SOL     OW37234   0.076   1.562   0.863
 2247SOL    HW137235   0.030   1.644   0.829
 2247SOL    HW237236   0.174   1.581   0.872
 2248SOL     OW37237   0.076   3.424   0.863
 2248SOL    HW137238   0.030   3.506   0.829
 2248SOL    HW237239   0.174   3.443   0.872
 2249SOL     OW37240   0.076   5.286   0.863
 2249SOL    HW137241   0.030   5.368   0.829
 2249SOL    HW237242   0.174   5.305   0.872
 2250SOL     OW37243   1.938   1.562   0.863
 2250SOL    HW137244   1.892   1.644   0.829
 2250SOL    HW237245   2.036   1.581   0.872
 2251SOL     OW37246   1.938   3.424   0.863
 2251SOL    HW137247   1.892   3.506   0.829
 2251SOL    HW237248   2.036   3.443   0.872
 2252SOL     OW37249   1.938   5.286   0.863
 2252SOL    HW137250   1.892   5.368   0.829
 2252SOL    HW237251   2.036   5.305   0.872
 2253SOL     OW37252   3.800   1.562   0.863
 2253SOL    HW137253   3.754   1.644   0.829
 2253SOL    HW237254   3.898   1.581   0.872
 2254SOL     OW37255   3.800   3.424   0.863
 2254SOL    HW137256   3.754   3.506   0.829
 2254SOL    HW237257   3.898   3.443   0.872
 2255SOL     OW37258   3.800   5.286   0.863
 2255SOL    HW137259   3.754   5.368   0.829
 2255SOL    HW237260   3.898   5.305   0.872
 2256SOL     OW37261   5.662   1.562   0.863
 2256SOL    HW137262   5.616   1.644   0.829
 2256SOL    HW237263   5.760   1.581   0.872
 2257SOL     OW37264   5.662   3.424   0.863
 2257SOL    HW137265   5.616   3.506   0.829
 2257SOL    HW237266   5.760   3.443   0.872
 2258SOL     OW37267   5.662   5.286   0.863
 2258SOL    HW137268   5.616   5.368   0.829
 2258SOL    HW237269   5.760   5.305   0.872
 2259SOL     OW37270   1.472   1.503   0.871
 2259SOL    HW137271   1.496   1.597   0.897
 2259SOL    HW237272   1.456   1.449   0.953
 2260SOL     OW37273   1.472   3.365   0.871
 2260SOL    HW137274   1.496   3.459   0.897
 2260SOL    HW237275   1.456   3.311   0.953
 2261SOL     OW37276   1.472   5.227   0.871
 2261SOL    HW137277   1.496   5.321   0.897
 2261SOL    HW237278   1.456   5.173   0.953
 2262SOL     OW37279   3.334   1.503   0.871
 2262SOL    HW137280   3.358   1.597   0.897
 2262SOL    HW237281   3.318   1.449   0.953
 2263SOL     OW37282   3.334   3.365   0.871
 2263SOL    HW137283   3.358   3.459   0.897
 2263SOL    HW237284   3.318   3.311   0.953
 2264SOL     OW37285   3.334   5.227   0.871
 2264SOL    HW137286   3.358   5.321   0.897
 2264SOL    HW237287   3.318   5.173   0.953
 2265SOL     OW37288   5.196   1.503   0.871
 2265SOL    HW137289   5.220   1.597   0.897
 2265SOL    HW237290   5.180   1.449   0.953
 2266SOL     OW37291   5.196   3.365   0.871
 2266SOL    HW137292   5.220   3.459   0.897
 2266SOL    HW237293   5.180   3.311   0.953
 2267SOL     OW37294   5.196   5.227   0.871
 2267SOL    HW137295   5.220   5.321   0.897
 2267SOL    HW237296   5.180   5.173   0.953
 2268SOL     OW37297   1.076   1.345   0.872
 2268SOL    HW137298   0.996   1.322   0.927
 2268SOL    HW237299   1.159   1.319   0.921
 2269SOL     OW37300   1.076   3.207   0.872
 2269SOL    HW137301   0.996   3.184   0.927
 2269SOL    HW237302   1.159   3.181   0.921
 2270SOL     OW37303   1.076   5.069   0.872
 2270SOL    HW137304   0.996   5.046   0.927
 2270SOL    HW237305   1.159   5.043   0.921
 2271SOL     OW37306   2.938   1.345   0.872
 2271SOL    HW137307   2.858   1.322   0.927
 2271SOL    HW237308   3.021   1.319   0.921
 2272SOL     OW37309   2.938   3.207   0.872
 2272SOL    HW137310   2.858   3.184   0.927
 2272SOL    HW237311   3.021   3.181   0.921
 2273SOL     OW37312   2.938   5.069   0.872
 2273SOL    HW137313   2.858   5.046   0.927
 2273SOL    HW237314   3.021   5.043   0.921
 2274SOL     OW37315   4.800   1.345   0.872
 2274SOL    HW137316   4.720   1.322   0.927
 2274SOL    HW237317   4.883   1.319   0.921
 2275SOL     OW37318   4.800   3.207   0.872
 2275SOL    HW137319   4.720   3.184   0.927
 2275SOL    HW237320   4.883   3.181   0.921
 2276SOL     OW37321   4.800   5.069   0.872
 2276SOL    HW137322   4.720   5.046   0.927
 2276SOL    HW237323   4.883   5.043   0.921
 2277SOL     OW37324   0.683   0.462  11.973
 2277SOL    HW137325   0.649   0.373  11.943
 2277SOL    HW237326   0.709   0.516  11.893
 2278SOL     OW37327   0.683   2.324  11.973
 2278SOL    HW137328   0.649   2.235  11.943
 2278SOL    HW237329   0.709   2.378  11.893
 2279SOL     OW37330   0.683   4.186  11.973
 2279SOL    HW137331   0.649   4.097  11.943
 2279SOL    HW237332   0.709   4.240  11.893
 2280SOL     OW37333   0.683   6.048  11.973
 2280SOL    HW137334   0.649   5.959  11.943
 2280SOL    HW237335   0.709   6.102  11.893
 2281SOL     OW37336   2.545   0.462  11.973
 2281SOL    HW137337   2.511   0.373  11.943
 2281SOL    HW237338   2.571   0.516  11.893
 2282SOL     OW37339   2.545   2.324  11.973
 2282SOL    HW137340   2.511   2.235  11.943
 2282SOL    HW237341   2.571   2.378  11.893
 2283SOL     OW37342   2.545   4.186  11.973
 2283SOL    HW137343   2.511   4.097  11.943
 2283SOL    HW237344   2.571   4.240  11.893
 2284SOL     OW37345   2.545   6.048  11.973
 2284SOL    HW137346   2.511   5.959  11.943
 2284SOL    HW237347   2.571   6.102  11.893
 2285SOL     OW37348   4.407   0.462  11.973
 2285SOL    HW137349   4.373   0.373  11.943
 2285SOL    HW237350   4.433   0.516  11.893
 2286SOL     OW37351   4.407   2.324  11.973
 2286SOL    HW137352   4.373   2.235  11.943
 2286SOL    HW237353   4.433   2.378  11.893
 2287SOL     OW37354   4.407   4.186  11.973
 2287SOL    HW137355   4.373   4.097  11.943
 2287SOL    HW237356   4.433   4.240  11.893
 2288SOL     OW37357   4.407   6.048  11.973
 2288SOL    HW137358   4.373   5.959  11.943
 2288SOL    HW237359   4.433   6.102  11.893
 2289SOL     OW37360   6.269   0.462  11.973
 2289SOL    HW137361   6.235   0.373  11.943
 2289SOL    HW237362   6.295   0.516  11.893
 2290SOL     OW37363   6.269   2.324  11.973
 2290SOL    HW137364   6.235   2.235  11.943
 2290SOL    HW237365   6.295   2.378  11.893
 2291SOL     OW37366   6.269   4.186  11.973
 2291SOL    HW137367   6.235   4.097  11.943
 2291SOL    HW237368   6.295   4.240  11.893
 2292SOL     OW37369   6.269   6.048  11.973
 2292SOL    HW137370   6.235   5.959  11.943
 2292SOL    HW237371   6.295   6.102  11.893
 2293SOL     OW37372   0.209   0.974  11.968
 2293SOL    HW137373   0.298   0.929  11.954
 2293SOL    HW237374   0.136   0.909  11.949
 2294SOL     OW37375   0.209   2.836  11.968
 2294SOL    HW137376   0.298   2.791  11.954
 2294SOL    HW237377   0.136   2.771  11.949
 2295SOL     OW37378   0.209   4.698  11.968
 2295SOL    HW137379   0.298   4.653  11.954
 2295SOL    HW237380   0.136   4.633  11.949
 2296SOL     OW37381   2.071   0.974  11.968
 2296SOL    HW137382   2.160   0.929  11.954
 2296SOL    HW237383   1.998   0.909  11.949
 2297SOL     OW37384   2.071   2.836  11.968
 2297SOL    HW137385   2.160   2.791  11.954
 2297SOL    HW237386   1.998   2.771  11.949
 2298SOL     OW37387   2.071   4.698  11.968
 2298SOL    HW137388   2.160   4.653  11.954
 2298SOL    HW237389   1.998   4.633  11.949
 2299SOL     OW37390   3.933   0.974  11.968
 2299SOL    HW137391   4.022   0.929  11.954
 2299SOL    HW237392   3.860   0.909  11.949
 2300SOL     OW37393   3.933   2.836  11.968
 2300SOL    HW137394   4.022   2.791  11.954
 2300SOL    HW237395   3.860   2.771  11.949
 2301SOL     OW37396   3.933   4.698  11.968
 2301SOL    HW137397   4.022   4.653  11.954
 2301SOL    HW237398   3.860   4.633  11.949
 2302SOL     OW37399   5.795   0.974  11.968
 2302SOL    HW137400   5.884   0.929  11.954
 2302SOL    HW237401   5.722   0.909  11.949
 2303SOL     OW37402   5.795   2.836  11.968
 2303SOL    HW137403   5.884   2.791  11.954
 2303SOL    HW237404   5.722   2.771  11.949
 2304SOL     OW37405   5.795   4.698  11.968
 2304SOL    HW137406   5.884   4.653  11.954
 2304SOL    HW237407   5.722   4.633  11.949
 2305SOL     OW37408   1.286   0.384  11.966
 2305SOL    HW137409   1.307   0.458  12.030
 2305SOL    HW237410   1.197   0.401  11.923
 2306SOL     OW37411   1.286   2.246  11.966
 2306SOL    HW137412   1.307   2.320  12.030
 2306SOL    HW237413   1.197   2.263  11.923
 2307SOL     OW37414   1.286   4.108  11.966
 2307SOL    HW137415   1.307   4.182  12.030
 2307SOL    HW237416   1.197   4.125  11.923
 2308SOL     OW37417   1.286   5.970  11.966
 2308SOL    HW137418   1.307   6.044  12.030
 2308SOL    HW237419   1.197   5.987  11.923
 2309SOL     OW37420   3.148   0.384  11.966
 2309SOL    HW137421   3.169   0.458  12.030
 2309SOL    HW237422   3.059   0.401  11.923
 2310SOL     OW37423   3.148   2.246  11.966
 2310SOL    HW137424   3.169   2.320  12.030
 2310SOL    HW237425   3.059   2.263  11.923
 2311SOL     OW37426   3.148   4.108  11.966
 2311SOL    HW137427   3.169   4.182  12.030
 2311SOL    HW237428   3.059   4.125  11.923
 2312SOL     OW37429   3.148   5.970  11.966
 2312SOL    HW137430   3.169   6.044  12.030
 2312SOL    HW237431   3.059   5.987  11.923
 2313SOL     OW37432   5.010   0.384  11.966
 2313SOL    HW137433   5.031   0.458  12.030
 2313SOL    HW237434   4.921   0.401  11.923
 2314SOL     OW37435   5.010   2.246  11.966
 2314SOL    HW137436   5.031   2.320  12.030
 2314SOL    HW237437   4.921   2.263  11.923
 2315SOL     OW37438   5.010   4.108  11.966
 2315SOL    HW137439   5.031   4.182  12.030
 2315SOL    HW237440   4.921   4.125  11.923
 2316SOL     OW37441   5.010   5.970  11.966
 2316SOL    HW137442   5.031   6.044  12.030
 2316SOL    HW237443   4.921   5.987  11.923
 2317SOL     OW37444   1.686   0.881  11.958
 2317SOL    HW137445   1.659   0.792  11.921
 2317SOL    HW237446   1.687   0.949  11.885
 2318SOL     OW37447   1.686   2.743  11.958
 2318SOL    HW137448   1.659   2.654  11.921
 2318SOL    HW237449   1.687   2.811  11.885
 2319SOL     OW37450   1.686   4.605  11.958
 2319SOL    HW137451   1.659   4.516  11.921
 2319SOL    HW237452   1.687   4.673  11.885
 2320SOL     OW37453   1.686   0.017  11.958
 2320SOL    HW137454   1.659   6.378  11.921
 2320SOL    HW237455   1.687   0.085  11.885
 2321SOL     OW37456   3.548   0.881  11.958
 2321SOL    HW137457   3.521   0.792  11.921
 2321SOL    HW237458   3.549   0.949  11.885
 2322SOL     OW37459   3.548   2.743  11.958
 2322SOL    HW137460   3.521   2.654  11.921
 2322SOL    HW237461   3.549   2.811  11.885
 2323SOL     OW37462   3.548   4.605  11.958
 2323SOL    HW137463   3.521   4.516  11.921
 2323SOL    HW237464   3.549   4.673  11.885
 2324SOL     OW37465   3.548   0.017  11.958
 2324SOL    HW137466   3.521   6.378  11.921
 2324SOL    HW237467   3.549   0.085  11.885
 2325SOL     OW37468   5.410   0.881  11.958
 2325SOL    HW137469   5.383   0.792  11.921
 2325SOL    HW237470   5.411   0.949  11.885
 2326SOL     OW37471   5.410   2.743  11.958
 2326SOL    HW137472   5.383   2.654  11.921
 2326SOL    HW237473   5.411   2.811  11.885
 2327SOL     OW37474   5.410   4.605  11.958
 2327SOL    HW137475   5.383   4.516  11.921
 2327SOL    HW237476   5.411   4.673  11.885
 2328SOL     OW37477   5.410   0.017  11.958
 2328SOL    HW137478   5.383   6.378  11.921
 2328SOL    HW237479   5.411   0.085  11.885
 2329SOL     OW37480   0.422   0.811  11.955
 2329SOL    HW137481   0.508   0.823  12.005
 2329SOL    HW237482   0.380   0.724  11.982
 2330SOL     OW37483   0.422   2.673  11.955
 2330SOL    HW137484   0.508   2.685  12.005
 2330SOL    HW237485   0.380   2.586  11.982
 2331SOL     OW37486   0.422   4.535  11.955
 2331SOL    HW137487   0.508   4.547  12.005
 2331SOL    HW237488   0.380   4.448  11.982
 2332SOL     OW37489   0.422   6.397  11.955
 2332SOL    HW137490   0.508   6.409  12.005
 2332SOL    HW237491   0.380   6.310  11.982
 2333SOL     OW37492   2.284   0.811  11.955
 2333SOL    HW137493   2.370   0.823  12.005
 2333SOL    HW237494   2.242   0.724  11.982
 2334SOL     OW37495   2.284   2.673  11.955
 2334SOL    HW137496   2.370   2.685  12.005
 2334SOL    HW237497   2.242   2.586  11.982
 2335SOL     OW37498   2.284   4.535  11.955
 2335SOL    HW137499   2.370   4.547  12.005
 2335SOL    HW237500   2.242   4.448  11.982
 2336SOL     OW37501   2.284   6.397  11.955
 2336SOL    HW137502   2.370   6.409  12.005
 2336SOL    HW237503   2.242   6.310  11.982
 2337SOL     OW37504   4.146   0.811  11.955
 2337SOL    HW137505   4.232   0.823  12.005
 2337SOL    HW237506   4.104   0.724  11.982
 2338SOL     OW37507   4.146   2.673  11.955
 2338SOL    HW137508   4.232   2.685  12.005
 2338SOL    HW237509   4.104   2.586  11.982
 2339SOL     OW37510   4.146   4.535  11.955
 2339SOL    HW137511   4.232   4.547  12.005
 2339SOL    HW237512   4.104   4.448  11.982
 2340SOL     OW37513   4.146   6.397  11.955
 2340SOL    HW137514   4.232   6.409  12.005
 2340SOL    HW237515   4.104   6.310  11.982
 2341SOL     OW37516   6.008   0.811  11.955
 2341SOL    HW137517   6.094   0.823  12.005
 2341SOL    HW237518   5.966   0.724  11.982
 2342SOL     OW37519   6.008   2.673  11.955
 2342SOL    HW137520   6.094   2.685  12.005
 2342SOL    HW237521   5.966   2.586  11.982
 2343SOL     OW37522   6.008   4.535  11.955
 2343SOL    HW137523   6.094   4.547  12.005
 2343SOL    HW237524   5.966   4.448  11.982
 2344SOL     OW37525   6.008   6.397  11.955
 2344SOL    HW137526   6.094   6.409  12.005
 2344SOL    HW237527   5.966   6.310  11.982
 2345SOL     OW37528   1.003   0.408  11.946
 2345SOL    HW137529   0.926   0.442  12.000
 2345SOL    HW237530   0.969   0.357  11.867
 2346SOL     OW37531   1.003   2.270  11.946
 2346SOL    HW137532   0.926   2.304  12.000
 2346SOL    HW237533   0.969   2.219  11.867
 2347SOL     OW37534   1.003   4.132  11.946
 2347SOL    HW137535   0.926   4.166  12.000
 2347SOL    HW237536   0.969   4.081  11.867
 2348SOL     OW37537   1.003   5.994  11.946
 2348SOL    HW137538   0.926   6.028  12.000
 2348SOL    HW237539   0.969   5.943  11.867
 2349SOL     OW37540   2.865   0.408  11.946
 2349SOL    HW137541   2.788   0.442  12.000
 2349SOL    HW237542   2.831   0.357  11.867
 2350SOL     OW37543   2.865   2.270  11.946
 2350SOL    HW137544   2.788   2.304  12.000
 2350SOL    HW237545   2.831   2.219  11.867
 2351SOL     OW37546   2.865   4.132  11.946
 2351SOL    HW137547   2.788   4.166  12.000
 2351SOL    HW237548   2.831   4.081  11.867
 2352SOL     OW37549   2.865   5.994  11.946
 2352SOL    HW137550   2.788   6.028  12.000
 2352SOL    HW237551   2.831   5.943  11.867
 2353SOL     OW37552   4.727   0.408  11.946
 2353SOL    HW137553   4.650   0.442  12.000
 2353SOL    HW237554   4.693   0.357  11.867
 2354SOL     OW37555   4.727   2.270  11.946
 2354SOL    HW137556   4.650   2.304  12.000
 2354SOL    HW237557   4.693   2.219  11.867
 2355SOL     OW37558   4.727   4.132  11.946
 2355SOL    HW137559   4.650   4.166  12.000
 2355SOL    HW237560   4.693   4.081  11.867
 2356SOL     OW37561   4.727   5.994  11.946
 2356SOL    HW137562   4.650   6.028  12.000
 2356SOL    HW237563   4.693   5.943  11.867
 2357SOL     OW37564   0.261   1.783  11.945
 2357SOL    HW137565   0.318   1.718  11.995
 2357SOL    HW237566   0.245   1.750  11.852
 2358SOL     OW37567   0.261   3.645  11.945
 2358SOL    HW137568   0.318   3.580  11.995
 2358SOL    HW237569   0.245   3.612  11.852
 2359SOL     OW37570   0.261   5.507  11.945
 2359SOL    HW137571   0.318   5.442  11.995
 2359SOL    HW237572   0.245   5.474  11.852
 2360SOL     OW37573   2.123   1.783  11.945
 2360SOL    HW137574   2.180   1.718  11.995
 2360SOL    HW237575   2.107   1.750  11.852
 2361SOL     OW37576   2.123   3.645  11.945
 2361SOL    HW137577   2.180   3.580  11.995
 2361SOL    HW237578   2.107   3.612  11.852
 2362SOL     OW37579   2.123   5.507  11.945
 2362SOL    HW137580   2.180   5.442  11.995
 2362SOL    HW237581   2.107   5.474  11.852
 2363SOL     OW37582   3.985   1.783  11.945
 2363SOL    HW137583   4.042   1.718  11.995
 2363SOL    HW237584   3.969   1.750  11.852
 2364SOL     OW37585   3.985   3.645  11.945
 2364SOL    HW137586   4.042   3.580  11.995
 2364SOL    HW237587   3.969   3.612  11.852
 2365SOL     OW37588   3.985   5.507  11.945
 2365SOL    HW137589   4.042   5.442  11.995
 2365SOL    HW237590   3.969   5.474  11.852
 2366SOL     OW37591   5.847   1.783  11.945
 2366SOL    HW137592   5.904   1.718  11.995
 2366SOL    HW237593   5.831   1.750  11.852
 2367SOL     OW37594   5.847   3.645  11.945
 2367SOL    HW137595   5.904   3.580  11.995
 2367SOL    HW237596   5.831   3.612  11.852
 2368SOL     OW37597   5.847   5.507  11.945
 2368SOL    HW137598   5.904   5.442  11.995
 2368SOL    HW237599   5.831   5.474  11.852
 2369SOL     OW37600   1.014   0.794  11.942
 2369SOL    HW137601   1.055   0.762  12.028
 2369SOL    HW237602   0.918   0.767  11.939
 2370SOL     OW37603   1.014   2.656  11.942
 2370SOL    HW137604   1.055   2.624  12.028
 2370SOL    HW237605   0.918   2.629  11.939
 2371SOL     OW37606   1.014   4.518  11.942
 2371SOL    HW137607   1.055   4.486  12.028
 2371SOL    HW237608   0.918   4.491  11.939
 2372SOL     OW37609   2.876   0.794  11.942
 2372SOL    HW137610   2.917   0.762  12.028
 2372SOL    HW237611   2.780   0.767  11.939
 2373SOL     OW37612   2.876   2.656  11.942
 2373SOL    HW137613   2.917   2.624  12.028
 2373SOL    HW237614   2.780   2.629  11.939
 2374SOL     OW37615   2.876   4.518  11.942
 2374SOL    HW137616   2.917   4.486  12.028
 2374SOL    HW237617   2.780   4.491  11.939
 2375SOL     OW37618   4.738   0.794  11.942
 2375SOL    HW137619   4.779   0.762  12.028
 2375SOL    HW237620   4.642   0.767  11.939
 2376SOL     OW37621   4.738   2.656  11.942
 2376SOL    HW137622   4.779   2.624  12.028
 2376SOL    HW237623   4.642   2.629  11.939
 2377SOL     OW37624   4.738   4.518  11.942
 2377SOL    HW137625   4.779   4.486  12.028
 2377SOL    HW237626   4.642   4.491  11.939
 2378SOL     OW37627   0.834   1.000   0.904
 2378SOL    HW137628   0.874   0.999   0.812
 2378SOL    HW237629   0.844   1.092   0.944
 2379SOL     OW37630   0.834   2.862   0.904
 2379SOL    HW137631   0.874   2.861   0.812
 2379SOL    HW237632   0.844   2.954   0.944
 2380SOL     OW37633   0.834   4.724   0.904
 2380SOL    HW137634   0.874   4.723   0.812
 2380SOL    HW237635   0.844   4.816   0.944
 2381SOL     OW37636   2.696   1.000   0.904
 2381SOL    HW137637   2.736   0.999   0.812
 2381SOL    HW237638   2.706   1.092   0.944
 2382SOL     OW37639   2.696   2.862   0.904
 2382SOL    HW137640   2.736   2.861   0.812
 2382SOL    HW237641   2.706   2.954   0.944
 2383SOL     OW37642   2.696   4.724   0.904
 2383SOL    HW137643   2.736   4.723   0.812
 2383SOL    HW237644   2.706   4.816   0.944
 2384SOL     OW37645   4.558   1.000   0.904
 2384SOL    HW137646   4.598   0.999   0.812
 2384SOL    HW237647   4.568   1.092   0.944
 2385SOL     OW37648   4.558   2.862   0.904
 2385SOL    HW137649   4.598   2.861   0.812
 2385SOL    HW237650   4.568   2.954   0.944
 2386SOL     OW37651   4.558   4.724   0.904
 2386SOL    HW137652   4.598   4.723   0.812
 2386SOL    HW237653   4.568   4.816   0.944
 2387SOL     OW37654   6.420   1.000   0.904
 2387SOL    HW137655   0.010   0.999   0.812
 2387SOL    HW237656   6.430   1.092   0.944
 2388SOL     OW37657   6.420   2.862   0.904
 2388SOL    HW137658   0.010   2.861   0.812
 2388SOL    HW237659   6.430   2.954   0.944
 2389SOL     OW37660   6.420   4.724   0.904
 2389SOL    HW137661   0.010   4.723   0.812
 2389SOL    HW237662   6.430   4.816   0.944
 2390SOL     OW37663   1.359   1.057  11.938
 2390SOL    HW137664   1.383   0.994  11.864
 2390SOL    HW237665   1.269   1.097  11.920
 2391SOL     OW37666   1.359   2.919  11.938
 2391SOL    HW137667   1.383   2.856  11.864
 2391SOL    HW237668   1.269   2.959  11.920
 2392SOL     OW37669   1.359   4.781  11.938
 2392SOL    HW137670   1.383   4.718  11.864
 2392SOL    HW237671   1.269   4.821  11.920
 2393SOL     OW37672   3.221   1.057  11.938
 2393SOL    HW137673   3.245   0.994  11.864
 2393SOL    HW237674   3.131   1.097  11.920
 2394SOL     OW37675   3.221   2.919  11.938
 2394SOL    HW137676   3.245   2.856  11.864
 2394SOL    HW237677   3.131   2.959  11.920
 2395SOL     OW37678   3.221   4.781  11.938
 2395SOL    HW137679   3.245   4.718  11.864
 2395SOL    HW237680   3.131   4.821  11.920
 2396SOL     OW37681   5.083   1.057  11.938
 2396SOL    HW137682   5.107   0.994  11.864
 2396SOL    HW237683   4.993   1.097  11.920
 2397SOL     OW37684   5.083   2.919  11.938
 2397SOL    HW137685   5.107   2.856  11.864
 2397SOL    HW237686   4.993   2.959  11.920
 2398SOL     OW37687   5.083   4.781  11.938
 2398SOL    HW137688   5.107   4.718  11.864
 2398SOL    HW237689   4.993   4.821  11.920
 2399SOL     OW37690   0.319   0.211  11.935
 2399SOL    HW137691   0.296   0.248  12.025
 2399SOL    HW237692   0.289   0.116  11.929
 2400SOL     OW37693   0.319   2.073  11.935
 2400SOL    HW137694   0.296   2.110  12.025
 2400SOL    HW237695   0.289   1.978  11.929
 2401SOL     OW37696   0.319   3.935  11.935
 2401SOL    HW137697   0.296   3.972  12.025
 2401SOL    HW237698   0.289   3.840  11.929
 2402SOL     OW37699   0.319   5.797  11.935
 2402SOL    HW137700   0.296   5.834  12.025
 2402SOL    HW237701   0.289   5.702  11.929
 2403SOL     OW37702   2.181   0.211  11.935
 2403SOL    HW137703   2.158   0.248  12.025
 2403SOL    HW237704   2.151   0.116  11.929
 2404SOL     OW37705   2.181   2.073  11.935
 2404SOL    HW137706   2.158   2.110  12.025
 2404SOL    HW237707   2.151   1.978  11.929
 2405SOL     OW37708   2.181   3.935  11.935
 2405SOL    HW137709   2.158   3.972  12.025
 2405SOL    HW237710   2.151   3.840  11.929
 2406SOL     OW37711   2.181   5.797  11.935
 2406SOL    HW137712   2.158   5.834  12.025
 2406SOL    HW237713   2.151   5.702  11.929
 2407SOL     OW37714   4.043   0.211  11.935
 2407SOL    HW137715   4.020   0.248  12.025
 2407SOL    HW237716   4.013   0.116  11.929
 2408SOL     OW37717   4.043   2.073  11.935
 2408SOL    HW137718   4.020   2.110  12.025
 2408SOL    HW237719   4.013   1.978  11.929
 2409SOL     OW37720   4.043   3.935  11.935
 2409SOL    HW137721   4.020   3.972  12.025
 2409SOL    HW237722   4.013   3.840  11.929
 2410SOL     OW37723   4.043   5.797  11.935
 2410SOL    HW137724   4.020   5.834  12.025
 2410SOL    HW237725   4.013   5.702  11.929
 2411SOL     OW37726   5.905   0.211  11.935
 2411SOL    HW137727   5.882   0.248  12.025
 2411SOL    HW237728   5.875   0.116  11.929
 2412SOL     OW37729   5.905   2.073  11.935
 2412SOL    HW137730   5.882   2.110  12.025
 2412SOL    HW237731   5.875   1.978  11.929
 2413SOL     OW37732   5.905   3.935  11.935
 2413SOL    HW137733   5.882   3.972  12.025
 2413SOL    HW237734   5.875   3.840  11.929
 2414SOL     OW37735   5.905   5.797  11.935
 2414SOL    HW137736   5.882   5.834  12.025
 2414SOL    HW237737   5.875   5.702  11.929
 2415SOL     OW37738   1.721   0.383   0.913
 2415SOL    HW137739   1.794   0.452   0.917
 2415SOL    HW237740   1.749   0.308   0.854
 2416SOL     OW37741   1.721   2.245   0.913
 2416SOL    HW137742   1.794   2.314   0.917
 2416SOL    HW237743   1.749   2.170   0.854
 2417SOL     OW37744   1.721   4.107   0.913
 2417SOL    HW137745   1.794   4.176   0.917
 2417SOL    HW237746   1.749   4.032   0.854
 2418SOL     OW37747   1.721   5.969   0.913
 2418SOL    HW137748   1.794   6.038   0.917
 2418SOL    HW237749   1.749   5.894   0.854
 2419SOL     OW37750   3.583   0.383   0.913
 2419SOL    HW137751   3.656   0.452   0.917
 2419SOL    HW237752   3.611   0.308   0.854
 2420SOL     OW37753   3.583   2.245   0.913
 2420SOL    HW137754   3.656   2.314   0.917
 2420SOL    HW237755   3.611   2.170   0.854
 2421SOL     OW37756   3.583   4.107   0.913
 2421SOL    HW137757   3.656   4.176   0.917
 2421SOL    HW237758   3.611   4.032   0.854
 2422SOL     OW37759   3.583   5.969   0.913
 2422SOL    HW137760   3.656   6.038   0.917
 2422SOL    HW237761   3.611   5.894   0.854
 2423SOL     OW37762   5.445   0.383   0.913
 2423SOL    HW137763   5.518   0.452   0.917
 2423SOL    HW237764   5.473   0.308   0.854
 2424SOL     OW37765   5.445   2.245   0.913
 2424SOL    HW137766   5.518   2.314   0.917
 2424SOL    HW237767   5.473   2.170   0.854
 2425SOL     OW37768   5.445   4.107   0.913
 2425SOL    HW137769   5.518   4.176   0.917
 2425SOL    HW237770   5.473   4.032   0.854
 2426SOL     OW37771   5.445   5.969   0.913
 2426SOL    HW137772   5.518   6.038   0.917
 2426SOL    HW237773   5.473   5.894   0.854
 2427SOL     OW37774   1.836   0.190  11.931
 2427SOL    HW137775   1.832   0.100  11.975
 2427SOL    HW237776   1.839   0.179  11.832
 2428SOL     OW37777   1.836   2.052  11.931
 2428SOL    HW137778   1.832   1.962  11.975
 2428SOL    HW237779   1.839   2.041  11.832
 2429SOL     OW37780   1.836   3.914  11.931
 2429SOL    HW137781   1.832   3.824  11.975
 2429SOL    HW237782   1.839   3.903  11.832
 2430SOL     OW37783   1.836   5.776  11.931
 2430SOL    HW137784   1.832   5.686  11.975
 2430SOL    HW237785   1.839   5.765  11.832
 2431SOL     OW37786   3.698   0.190  11.931
 2431SOL    HW137787   3.694   0.100  11.975
 2431SOL    HW237788   3.701   0.179  11.832
 2432SOL     OW37789   3.698   2.052  11.931
 2432SOL    HW137790   3.694   1.962  11.975
 2432SOL    HW237791   3.701   2.041  11.832
 2433SOL     OW37792   3.698   3.914  11.931
 2433SOL    HW137793   3.694   3.824  11.975
 2433SOL    HW237794   3.701   3.903  11.832
 2434SOL     OW37795   3.698   5.776  11.931
 2434SOL    HW137796   3.694   5.686  11.975
 2434SOL    HW237797   3.701   5.765  11.832
 2435SOL     OW37798   5.560   0.190  11.931
 2435SOL    HW137799   5.556   0.100  11.975
 2435SOL    HW237800   5.563   0.179  11.832
 2436SOL     OW37801   5.560   2.052  11.931
 2436SOL    HW137802   5.556   1.962  11.975
 2436SOL    HW237803   5.563   2.041  11.832
 2437SOL     OW37804   5.560   3.914  11.931
 2437SOL    HW137805   5.556   3.824  11.975
 2437SOL    HW237806   5.563   3.903  11.832
 2438SOL     OW37807   5.560   5.776  11.931
 2438SOL    HW137808   5.556   5.686  11.975
 2438SOL    HW237809   5.563   5.765  11.832
 2439SOL     OW37810   0.090   0.554   0.918
 2439SOL    HW137811   0.182   0.553   0.877
 2439SOL    HW237812   0.084   0.628   0.985
 2440SOL     OW37813   0.090   2.416   0.918
 2440SOL    HW137814   0.182   2.415   0.877
 2440SOL    HW237815   0.084   2.490   0.985
 2441SOL     OW37816   0.090   4.278   0.918
 2441SOL    HW137817   0.182   4.277   0.877
 2441SOL    HW237818   0.084   4.352   0.985
 2442SOL     OW37819   0.090   6.140   0.918
 2442SOL    HW137820   0.182   6.139   0.877
 2442SOL    HW237821   0.084   6.214   0.985
 2443SOL     OW37822   1.952   0.554   0.918
 2443SOL    HW137823   2.044   0.553   0.877
 2443SOL    HW237824   1.946   0.628   0.985
 2444SOL     OW37825   1.952   2.416   0.918
 2444SOL    HW137826   2.044   2.415   0.877
 2444SOL    HW237827   1.946   2.490   0.985
 2445SOL     OW37828   1.952   4.278   0.918
 2445SOL    HW137829   2.044   4.277   0.877
 2445SOL    HW237830   1.946   4.352   0.985
 2446SOL     OW37831   1.952   6.140   0.918
 2446SOL    HW137832   2.044   6.139   0.877
 2446SOL    HW237833   1.946   6.214   0.985
 2447SOL     OW37834   3.814   0.554   0.918
 2447SOL    HW137835   3.906   0.553   0.877
 2447SOL    HW237836   3.808   0.628   0.985
 2448SOL     OW37837   3.814   2.416   0.918
 2448SOL    HW137838   3.906   2.415   0.877
 2448SOL    HW237839   3.808   2.490   0.985
 2449SOL     OW37840   3.814   4.278   0.918
 2449SOL    HW137841   3.906   4.277   0.877
 2449SOL    HW237842   3.808   4.352   0.985
 2450SOL     OW37843   3.814   6.140   0.918
 2450SOL    HW137844   3.906   6.139   0.877
 2450SOL    HW237845   3.808   6.214   0.985
 2451SOL     OW37846   5.676   0.554   0.918
 2451SOL    HW137847   5.768   0.553   0.877
 2451SOL    HW237848   5.670   0.628   0.985
 2452SOL     OW37849   5.676   2.416   0.918
 2452SOL    HW137850   5.768   2.415   0.877
 2452SOL    HW237851   5.670   2.490   0.985
 2453SOL     OW37852   5.676   4.278   0.918
 2453SOL    HW137853   5.768   4.277   0.877
 2453SOL    HW237854   5.670   4.352   0.985
 2454SOL     OW37855   5.676   6.140   0.918
 2454SOL    HW137856   5.768   6.139   0.877
 2454SOL    HW237857   5.670   6.214   0.985
 2455SOL     OW37858   1.662   1.718   0.926
 2455SOL    HW137859   1.715   1.728   0.842
 2455SOL    HW237860   1.635   1.808   0.960
 2456SOL     OW37861   1.662   3.580   0.926
 2456SOL    HW137862   1.715   3.590   0.842
 2456SOL    HW237863   1.635   3.670   0.960
 2457SOL     OW37864   1.662   5.442   0.926
 2457SOL    HW137865   1.715   5.452   0.842
 2457SOL    HW237866   1.635   5.532   0.960
 2458SOL     OW37867   3.524   1.718   0.926
 2458SOL    HW137868   3.577   1.728   0.842
 2458SOL    HW237869   3.497   1.808   0.960
 2459SOL     OW37870   3.524   3.580   0.926
 2459SOL    HW137871   3.577   3.590   0.842
 2459SOL    HW237872   3.497   3.670   0.960
 2460SOL     OW37873   3.524   5.442   0.926
 2460SOL    HW137874   3.577   5.452   0.842
 2460SOL    HW237875   3.497   5.532   0.960
 2461SOL     OW37876   5.386   1.718   0.926
 2461SOL    HW137877   5.439   1.728   0.842
 2461SOL    HW237878   5.359   1.808   0.960
 2462SOL     OW37879   5.386   3.580   0.926
 2462SOL    HW137880   5.439   3.590   0.842
 2462SOL    HW237881   5.359   3.670   0.960
 2463SOL     OW37882   5.386   5.442   0.926
 2463SOL    HW137883   5.439   5.452   0.842
 2463SOL    HW237884   5.359   5.532   0.960
 2464SOL     OW37885   1.452   0.854   0.930
 2464SOL    HW137886   1.395   0.906   0.867
 2464SOL    HW237887   1.548   0.866   0.906
 2465SOL     OW37888   1.452   2.716   0.930
 2465SOL    HW137889   1.395   2.768   0.867
 2465SOL    HW237890   1.548   2.728   0.906
 2466SOL     OW37891   1.452   4.578   0.930
 2466SOL    HW137892   1.395   4.630   0.867
 2466SOL    HW237893   1.548   4.590   0.906
 2467SOL     OW37894   1.452   6.440   0.930
 2467SOL    HW137895   1.395   0.042   0.867
 2467SOL    HW237896   1.548   0.002   0.906
 2468SOL     OW37897   3.314   0.854   0.930
 2468SOL    HW137898   3.257   0.906   0.867
 2468SOL    HW237899   3.410   0.866   0.906
 2469SOL     OW37900   3.314   2.716   0.930
 2469SOL    HW137901   3.257   2.768   0.867
 2469SOL    HW237902   3.410   2.728   0.906
 2470SOL     OW37903   3.314   4.578   0.930
 2470SOL    HW137904   3.257   4.630   0.867
 2470SOL    HW237905   3.410   4.590   0.906
 2471SOL     OW37906   3.314   6.440   0.930
 2471SOL    HW137907   3.257   0.042   0.867
 2471SOL    HW237908   3.410   0.002   0.906
 2472SOL     OW37909   5.176   0.854   0.930
 2472SOL    HW137910   5.119   0.906   0.867
 2472SOL    HW237911   5.272   0.866   0.906
 2473SOL     OW37912   5.176   2.716   0.930
 2473SOL    HW137913   5.119   2.768   0.867
 2473SOL    HW237914   5.272   2.728   0.906
 2474SOL     OW37915   5.176   4.578   0.930
 2474SOL    HW137916   5.119   4.630   0.867
 2474SOL    HW237917   5.272   4.590   0.906
 2475SOL     OW37918   5.176   6.440   0.930
 2475SOL    HW137919   5.119   0.042   0.867
 2475SOL    HW237920   5.272   0.002   0.906
 2476SOL     OW37921   0.927   0.087   0.934
 2476SOL    HW137922   0.952   0.067   0.839
 2476SOL    HW237923   0.999   0.143   0.976
 2477SOL     OW37924   0.927   1.949   0.934
 2477SOL    HW137925   0.952   1.929   0.839
 2477SOL    HW237926   0.999   2.005   0.976
 2478SOL     OW37927   0.927   3.811   0.934
 2478SOL    HW137928   0.952   3.791   0.839
 2478SOL    HW237929   0.999   3.867   0.976
 2479SOL     OW37930   0.927   5.673   0.934
 2479SOL    HW137931   0.952   5.653   0.839
 2479SOL    HW237932   0.999   5.729   0.976
 2480SOL     OW37933   2.789   0.087   0.934
 2480SOL    HW137934   2.814   0.067   0.839
 2480SOL    HW237935   2.861   0.143   0.976
 2481SOL     OW37936   2.789   1.949   0.934
 2481SOL    HW137937   2.814   1.929   0.839
 2481SOL    HW237938   2.861   2.005   0.976
 2482SOL     OW37939   2.789   3.811   0.934
 2482SOL    HW137940   2.814   3.791   0.839
 2482SOL    HW237941   2.861   3.867   0.976
 2483SOL     OW37942   2.789   5.673   0.934
 2483SOL    HW137943   2.814   5.653   0.839
 2483SOL    HW237944   2.861   5.729   0.976
 2484SOL     OW37945   4.651   0.087   0.934
 2484SOL    HW137946   4.676   0.067   0.839
 2484SOL    HW237947   4.723   0.143   0.976
 2485SOL     OW37948   4.651   1.949   0.934
 2485SOL    HW137949   4.676   1.929   0.839
 2485SOL    HW237950   4.723   2.005   0.976
 2486SOL     OW37951   4.651   3.811   0.934
 2486SOL    HW137952   4.676   3.791   0.839
 2486SOL    HW237953   4.723   3.867   0.976
 2487SOL     OW37954   4.651   5.673   0.934
 2487SOL    HW137955   4.676   5.653   0.839
 2487SOL    HW237956   4.723   5.729   0.976
 2488SOL     OW37957   0.063   0.087   0.934
 2488SOL    HW137958   0.088   0.067   0.839
 2488SOL    HW237959   0.135   0.143   0.976
 2489SOL     OW37960   0.063   1.949   0.934
 2489SOL    HW137961   0.088   1.929   0.839
 2489SOL    HW237962   0.135   2.005   0.976
 2490SOL     OW37963   0.063   3.811   0.934
 2490SOL    HW137964   0.088   3.791   0.839
 2490SOL    HW237965   0.135   3.867   0.976
 2491SOL     OW37966   0.063   5.673   0.934
 2491SOL    HW137967   0.088   5.653   0.839
 2491SOL    HW237968   0.135   5.729   0.976
 2492SOL     OW37969   1.669   0.602  11.910
 2492SOL    HW137970   1.631   0.533  11.972
 2492SOL    HW237971   1.751   0.566  11.866
 2493SOL     OW37972   1.669   2.464  11.910
 2493SOL    HW137973   1.631   2.395  11.972
 2493SOL    HW237974   1.751   2.428  11.866
 2494SOL     OW37975   1.669   4.326  11.910
 2494SOL    HW137976   1.631   4.257  11.972
 2494SOL    HW237977   1.751   4.290  11.866
 2495SOL     OW37978   1.669   6.188  11.910
 2495SOL    HW137979   1.631   6.119  11.972
 2495SOL    HW237980   1.751   6.152  11.866
 2496SOL     OW37981   3.531   0.602  11.910
 2496SOL    HW137982   3.493   0.533  11.972
 2496SOL    HW237983   3.613   0.566  11.866
 2497SOL     OW37984   3.531   2.464  11.910
 2497SOL    HW137985   3.493   2.395  11.972
 2497SOL    HW237986   3.613   2.428  11.866
 2498SOL     OW37987   3.531   4.326  11.910
 2498SOL    HW137988   3.493   4.257  11.972
 2498SOL    HW237989   3.613   4.290  11.866
 2499SOL     OW37990   3.531   6.188  11.910
 2499SOL    HW137991   3.493   6.119  11.972
 2499SOL    HW237992   3.613   6.152  11.866
 2500SOL     OW37993   5.393   0.602  11.910
 2500SOL    HW137994   5.355   0.533  11.972
 2500SOL    HW237995   5.475   0.566  11.866
 2501SOL     OW37996   5.393   2.464  11.910
 2501SOL    HW137997   5.355   2.395  11.972
 2501SOL    HW237998   5.475   2.428  11.866
 2502SOL     OW37999   5.393   4.326  11.910
 2502SOL    HW138000   5.355   4.257  11.972
 2502SOL    HW238001   5.475   4.290  11.866
 2503SOL     OW38002   5.393   6.188  11.910
 2503SOL    HW138003   5.355   6.119  11.972
 2503SOL    HW238004   5.475   6.152  11.866
 2504SOL     OW38005   0.900   1.512  11.899
 2504SOL    HW138006   0.877   1.487  11.805
 2504SOL    HW238007   0.961   1.443  11.938
 2505SOL     OW38008   0.900   3.374  11.899
 2505SOL    HW138009   0.877   3.349  11.805
 2505SOL    HW238010   0.961   3.305  11.938
 2506SOL     OW38011   0.900   5.236  11.899
 2506SOL    HW138012   0.877   5.211  11.805
 2506SOL    HW238013   0.961   5.167  11.938
 2507SOL     OW38014   2.762   1.512  11.899
 2507SOL    HW138015   2.739   1.487  11.805
 2507SOL    HW238016   2.823   1.443  11.938
 2508SOL     OW38017   2.762   3.374  11.899
 2508SOL    HW138018   2.739   3.349  11.805
 2508SOL    HW238019   2.823   3.305  11.938
 2509SOL     OW38020   2.762   5.236  11.899
 2509SOL    HW138021   2.739   5.211  11.805
 2509SOL    HW238022   2.823   5.167  11.938
 2510SOL     OW38023   4.624   1.512  11.899
 2510SOL    HW138024   4.601   1.487  11.805
 2510SOL    HW238025   4.685   1.443  11.938
 2511SOL     OW38026   4.624   3.374  11.899
 2511SOL    HW138027   4.601   3.349  11.805
 2511SOL    HW238028   4.685   3.305  11.938
 2512SOL     OW38029   4.624   5.236  11.899
 2512SOL    HW138030   4.601   5.211  11.805
 2512SOL    HW238031   4.685   5.167  11.938
 2513SOL     OW38032   0.842   1.271   0.954
 2513SOL    HW138033   0.837   1.304   1.049
 2513SOL    HW238034   0.756   1.290   0.908
 2514SOL     OW38035   0.842   3.133   0.954
 2514SOL    HW138036   0.837   3.166   1.049
 2514SOL    HW238037   0.756   3.152   0.908
 2515SOL     OW38038   0.842   4.995   0.954
 2515SOL    HW138039   0.837   5.028   1.049
 2515SOL    HW238040   0.756   5.014   0.908
 2516SOL     OW38041   2.704   1.271   0.954
 2516SOL    HW138042   2.699   1.304   1.049
 2516SOL    HW238043   2.618   1.290   0.908
 2517SOL     OW38044   2.704   3.133   0.954
 2517SOL    HW138045   2.699   3.166   1.049
 2517SOL    HW238046   2.618   3.152   0.908
 2518SOL     OW38047   2.704   4.995   0.954
 2518SOL    HW138048   2.699   5.028   1.049
 2518SOL    HW238049   2.618   5.014   0.908
 2519SOL     OW38050   4.566   1.271   0.954
 2519SOL    HW138051   4.561   1.304   1.049
 2519SOL    HW238052   4.480   1.290   0.908
 2520SOL     OW38053   4.566   3.133   0.954
 2520SOL    HW138054   4.561   3.166   1.049
 2520SOL    HW238055   4.480   3.152   0.908
 2521SOL     OW38056   4.566   4.995   0.954
 2521SOL    HW138057   4.561   5.028   1.049
 2521SOL    HW238058   4.480   5.014   0.908
 2522SOL     OW38059   1.305   1.226   0.955
 2522SOL    HW138060   1.342   1.153   0.897
 2522SOL    HW238061   1.357   1.231   1.040
 2523SOL     OW38062   1.305   3.088   0.955
 2523SOL    HW138063   1.342   3.015   0.897
 2523SOL    HW238064   1.357   3.093   1.040
 2524SOL     OW38065   1.305   4.950   0.955
 2524SOL    HW138066   1.342   4.877   0.897
 2524SOL    HW238067   1.357   4.955   1.040
 2525SOL     OW38068   3.167   1.226   0.955
 2525SOL    HW138069   3.204   1.153   0.897
 2525SOL    HW238070   3.219   1.231   1.040
 2526SOL     OW38071   3.167   3.088   0.955
 2526SOL    HW138072   3.204   3.015   0.897
 2526SOL    HW238073   3.219   3.093   1.040
 2527SOL     OW38074   3.167   4.950   0.955
 2527SOL    HW138075   3.204   4.877   0.897
 2527SOL    HW238076   3.219   4.955   1.040
 2528SOL     OW38077   5.029   1.226   0.955
 2528SOL    HW138078   5.066   1.153   0.897
 2528SOL    HW238079   5.081   1.231   1.040
 2529SOL     OW38080   5.029   3.088   0.955
 2529SOL    HW138081   5.066   3.015   0.897
 2529SOL    HW238082   5.081   3.093   1.040
 2530SOL     OW38083   5.029   4.950   0.955
 2530SOL    HW138084   5.066   4.877   0.897
 2530SOL    HW238085   5.081   4.955   1.040
 2531SOL     OW38086   0.625   0.840   0.963
 2531SOL    HW138087   0.681   0.921   0.946
 2531SOL    HW238088   0.684   0.760   0.966
 2532SOL     OW38089   0.625   2.702   0.963
 2532SOL    HW138090   0.681   2.783   0.946
 2532SOL    HW238091   0.684   2.622   0.966
 2533SOL     OW38092   0.625   4.564   0.963
 2533SOL    HW138093   0.681   4.645   0.946
 2533SOL    HW238094   0.684   4.484   0.966
 2534SOL     OW38095   0.625   6.426   0.963
 2534SOL    HW138096   0.681   0.057   0.946
 2534SOL    HW238097   0.684   6.346   0.966
 2535SOL     OW38098   2.487   0.840   0.963
 2535SOL    HW138099   2.543   0.921   0.946
 2535SOL    HW238100   2.546   0.760   0.966
 2536SOL     OW38101   2.487   2.702   0.963
 2536SOL    HW138102   2.543   2.783   0.946
 2536SOL    HW238103   2.546   2.622   0.966
 2537SOL     OW38104   2.487   4.564   0.963
 2537SOL    HW138105   2.543   4.645   0.946
 2537SOL    HW238106   2.546   4.484   0.966
 2538SOL     OW38107   2.487   6.426   0.963
 2538SOL    HW138108   2.543   0.057   0.946
 2538SOL    HW238109   2.546   6.346   0.966
 2539SOL     OW38110   4.349   0.840   0.963
 2539SOL    HW138111   4.405   0.921   0.946
 2539SOL    HW238112   4.408   0.760   0.966
 2540SOL     OW38113   4.349   2.702   0.963
 2540SOL    HW138114   4.405   2.783   0.946
 2540SOL    HW238115   4.408   2.622   0.966
 2541SOL     OW38116   4.349   4.564   0.963
 2541SOL    HW138117   4.405   4.645   0.946
 2541SOL    HW238118   4.408   4.484   0.966
 2542SOL     OW38119   4.349   6.426   0.963
 2542SOL    HW138120   4.405   0.057   0.946
 2542SOL    HW238121   4.408   6.346   0.966
 2543SOL     OW38122   6.211   0.840   0.963
 2543SOL    HW138123   6.267   0.921   0.946
 2543SOL    HW238124   6.270   0.760   0.966
 2544SOL     OW38125   6.211   2.702   0.963
 2544SOL    HW138126   6.267   2.783   0.946
 2544SOL    HW238127   6.270   2.622   0.966
 2545SOL     OW38128   6.211   4.564   0.963
 2545SOL    HW138129   6.267   4.645   0.946
 2545SOL    HW238130   6.270   4.484   0.966
 2546SOL     OW38131   6.211   6.426   0.963
 2546SOL    HW138132   6.267   0.057   0.946
 2546SOL    HW238133   6.270   6.346   0.966
 2547SOL     OW38134   1.363   0.588   0.965
 2547SOL    HW138135   1.391   0.545   1.050
 2547SOL    HW238136   1.388   0.684   0.966
 2548SOL     OW38137   1.363   2.450   0.965
 2548SOL    HW138138   1.391   2.407   1.050
 2548SOL    HW238139   1.388   2.546   0.966
 2549SOL     OW38140   1.363   4.312   0.965
 2549SOL    HW138141   1.391   4.269   1.050
 2549SOL    HW238142   1.388   4.408   0.966
 2550SOL     OW38143   1.363   6.174   0.965
 2550SOL    HW138144   1.391   6.131   1.050
 2550SOL    HW238145   1.388   6.270   0.966
 2551SOL     OW38146   3.225   0.588   0.965
 2551SOL    HW138147   3.253   0.545   1.050
 2551SOL    HW238148   3.250   0.684   0.966
 2552SOL     OW38149   3.225   2.450   0.965
 2552SOL    HW138150   3.253   2.407   1.050
 2552SOL    HW238151   3.250   2.546   0.966
 2553SOL     OW38152   3.225   4.312   0.965
 2553SOL    HW138153   3.253   4.269   1.050
 2553SOL    HW238154   3.250   4.408   0.966
 2554SOL     OW38155   3.225   6.174   0.965
 2554SOL    HW138156   3.253   6.131   1.050
 2554SOL    HW238157   3.250   6.270   0.966
 2555SOL     OW38158   5.087   0.588   0.965
 2555SOL    HW138159   5.115   0.545   1.050
 2555SOL    HW238160   5.112   0.684   0.966
 2556SOL     OW38161   5.087   2.450   0.965
 2556SOL    HW138162   5.115   2.407   1.050
 2556SOL    HW238163   5.112   2.546   0.966
 2557SOL     OW38164   5.087   4.312   0.965
 2557SOL    HW138165   5.115   4.269   1.050
 2557SOL    HW238166   5.112   4.408   0.966
 2558SOL     OW38167   5.087   6.174   0.965
 2558SOL    HW138168   5.115   6.131   1.050
 2558SOL    HW238169   5.112   6.270   0.966
 2559SOL     OW38170   0.632   1.784   0.971
 2559SOL    HW138171   0.540   1.767   1.006
 2559SOL    HW238172   0.660   1.876   0.997
 2560SOL     OW38173   0.632   3.646   0.971
 2560SOL    HW138174   0.540   3.629   1.006
 2560SOL    HW238175   0.660   3.738   0.997
 2561SOL     OW38176   0.632   5.508   0.971
 2561SOL    HW138177   0.540   5.491   1.006
 2561SOL    HW238178   0.660   5.600   0.997
 2562SOL     OW38179   2.494   1.784   0.971
 2562SOL    HW138180   2.402   1.767   1.006
 2562SOL    HW238181   2.522   1.876   0.997
 2563SOL     OW38182   2.494   3.646   0.971
 2563SOL    HW138183   2.402   3.629   1.006
 2563SOL    HW238184   2.522   3.738   0.997
 2564SOL     OW38185   2.494   5.508   0.971
 2564SOL    HW138186   2.402   5.491   1.006
 2564SOL    HW238187   2.522   5.600   0.997
 2565SOL     OW38188   4.356   1.784   0.971
 2565SOL    HW138189   4.264   1.767   1.006
 2565SOL    HW238190   4.384   1.876   0.997
 2566SOL     OW38191   4.356   3.646   0.971
 2566SOL    HW138192   4.264   3.629   1.006
 2566SOL    HW238193   4.384   3.738   0.997
 2567SOL     OW38194   4.356   5.508   0.971
 2567SOL    HW138195   4.264   5.491   1.006
 2567SOL    HW238196   4.384   5.600   0.997
 2568SOL     OW38197   6.218   1.784   0.971
 2568SOL    HW138198   6.126   1.767   1.006
 2568SOL    HW238199   6.246   1.876   0.997
 2569SOL     OW38200   6.218   3.646   0.971
 2569SOL    HW138201   6.126   3.629   1.006
 2569SOL    HW238202   6.246   3.738   0.997
 2570SOL     OW38203   6.218   5.508   0.971
 2570SOL    HW138204   6.126   5.491   1.006
 2570SOL    HW238205   6.246   5.600   0.997
 2571SOL     OW38206   0.581   1.273  11.869
 2571SOL    HW138207   0.488   1.266  11.832
 2571SOL    HW238208   0.592   1.362  11.913
 2572SOL     OW38209   0.581   3.135  11.869
 2572SOL    HW138210   0.488   3.128  11.832
 2572SOL    HW238211   0.592   3.224  11.913
 2573SOL     OW38212   0.581   4.997  11.869
 2573SOL    HW138213   0.488   4.990  11.832
 2573SOL    HW238214   0.592   5.086  11.913
 2574SOL     OW38215   2.443   1.273  11.869
 2574SOL    HW138216   2.350   1.266  11.832
 2574SOL    HW238217   2.454   1.362  11.913
 2575SOL     OW38218   2.443   3.135  11.869
 2575SOL    HW138219   2.350   3.128  11.832
 2575SOL    HW238220   2.454   3.224  11.913
 2576SOL     OW38221   2.443   4.997  11.869
 2576SOL    HW138222   2.350   4.990  11.832
 2576SOL    HW238223   2.454   5.086  11.913
 2577SOL     OW38224   4.305   1.273  11.869
 2577SOL    HW138225   4.212   1.266  11.832
 2577SOL    HW238226   4.316   1.362  11.913
 2578SOL     OW38227   4.305   3.135  11.869
 2578SOL    HW138228   4.212   3.128  11.832
 2578SOL    HW238229   4.316   3.224  11.913
 2579SOL     OW38230   4.305   4.997  11.869
 2579SOL    HW138231   4.212   4.990  11.832
 2579SOL    HW238232   4.316   5.086  11.913
 2580SOL     OW38233   6.167   1.273  11.869
 2580SOL    HW138234   6.074   1.266  11.832
 2580SOL    HW238235   6.178   1.362  11.913
 2581SOL     OW38236   6.167   3.135  11.869
 2581SOL    HW138237   6.074   3.128  11.832
 2581SOL    HW238238   6.178   3.224  11.913
 2582SOL     OW38239   6.167   4.997  11.869
 2582SOL    HW138240   6.074   4.990  11.832
 2582SOL    HW238241   6.178   5.086  11.913
 2583SOL     OW38242   1.771   1.745  11.858
 2583SOL    HW138243   1.832   1.775  11.785
 2583SOL    HW238244   1.733   1.656  11.836
 2584SOL     OW38245   1.013   0.032  11.858
 2584SOL    HW138246   0.950   6.410  11.827
 2584SOL    HW238247   1.106   6.446  11.858
 2585SOL     OW38248   1.771   3.607  11.858
 2585SOL    HW138249   1.832   3.637  11.785
 2585SOL    HW238250   1.733   3.518  11.836
 2586SOL     OW38251   1.013   1.894  11.858
 2586SOL    HW138252   0.950   1.822  11.827
 2586SOL    HW238253   1.106   1.858  11.858
 2587SOL     OW38254   1.771   5.469  11.858
 2587SOL    HW138255   1.832   5.499  11.785
 2587SOL    HW238256   1.733   5.380  11.836
 2588SOL     OW38257   1.013   3.756  11.858
 2588SOL    HW138258   0.950   3.684  11.827
 2588SOL    HW238259   1.106   3.720  11.858
 2589SOL     OW38260   1.013   5.618  11.858
 2589SOL    HW138261   0.950   5.546  11.827
 2589SOL    HW238262   1.106   5.582  11.858
 2590SOL     OW38263   3.633   1.745  11.858
 2590SOL    HW138264   3.694   1.775  11.785
 2590SOL    HW238265   3.595   1.656  11.836
 2591SOL     OW38266   2.875   0.032  11.858
 2591SOL    HW138267   2.812   6.410  11.827
 2591SOL    HW238268   2.968   6.446  11.858
 2592SOL     OW38269   3.633   3.607  11.858
 2592SOL    HW138270   3.694   3.637  11.785
 2592SOL    HW238271   3.595   3.518  11.836
 2593SOL     OW38272   2.875   1.894  11.858
 2593SOL    HW138273   2.812   1.822  11.827
 2593SOL    HW238274   2.968   1.858  11.858
 2594SOL     OW38275   3.633   5.469  11.858
 2594SOL    HW138276   3.694   5.499  11.785
 2594SOL    HW238277   3.595   5.380  11.836
 2595SOL     OW38278   2.875   3.756  11.858
 2595SOL    HW138279   2.812   3.684  11.827
 2595SOL    HW238280   2.968   3.720  11.858
 2596SOL     OW38281   2.875   5.618  11.858
 2596SOL    HW138282   2.812   5.546  11.827
 2596SOL    HW238283   2.968   5.582  11.858
 2597SOL     OW38284   5.495   1.745  11.858
 2597SOL    HW138285   5.556   1.775  11.785
 2597SOL    HW238286   5.457   1.656  11.836
 2598SOL     OW38287   4.737   0.032  11.858
 2598SOL    HW138288   4.674   6.410  11.827
 2598SOL    HW238289   4.830   6.446  11.858
 2599SOL     OW38290   5.495   3.607  11.858
 2599SOL    HW138291   5.556   3.637  11.785
 2599SOL    HW238292   5.457   3.518  11.836
 2600SOL     OW38293   4.737   1.894  11.858
 2600SOL    HW138294   4.674   1.822  11.827
 2600SOL    HW238295   4.830   1.858  11.858
 2601SOL     OW38296   5.495   5.469  11.858
 2601SOL    HW138297   5.556   5.499  11.785
 2601SOL    HW238298   5.457   5.380  11.836
 2602SOL     OW38299   4.737   3.756  11.858
 2602SOL    HW138300   4.674   3.684  11.827
 2602SOL    HW238301   4.830   3.720  11.858
 2603SOL     OW38302   4.737   5.618  11.858
 2603SOL    HW138303   4.674   5.546  11.827
 2603SOL    HW238304   4.830   5.582  11.858
 2604SOL     OW38305   0.149   0.032  11.858
 2604SOL    HW138306   0.086   6.410  11.827
 2604SOL    HW238307   0.242   6.446  11.858
 2605SOL     OW38308   0.573   0.220  11.851
 2605SOL    HW138309   0.611   0.136  11.888
 2605SOL    HW238310   0.485   0.239  11.895
 2606SOL     OW38311   0.573   2.082  11.851
 2606SOL    HW138312   0.611   1.998  11.888
 2606SOL    HW238313   0.485   2.101  11.895
 2607SOL     OW38314   0.573   3.944  11.851
 2607SOL    HW138315   0.611   3.860  11.888
 2607SOL    HW238316   0.485   3.963  11.895
 2608SOL     OW38317   0.573   5.806  11.851
 2608SOL    HW138318   0.611   5.722  11.888
 2608SOL    HW238319   0.485   5.825  11.895
 2609SOL     OW38320   2.435   0.220  11.851
 2609SOL    HW138321   2.473   0.136  11.888
 2609SOL    HW238322   2.347   0.239  11.895
 2610SOL     OW38323   2.435   2.082  11.851
 2610SOL    HW138324   2.473   1.998  11.888
 2610SOL    HW238325   2.347   2.101  11.895
 2611SOL     OW38326   2.435   3.944  11.851
 2611SOL    HW138327   2.473   3.860  11.888
 2611SOL    HW238328   2.347   3.963  11.895
 2612SOL     OW38329   2.435   5.806  11.851
 2612SOL    HW138330   2.473   5.722  11.888
 2612SOL    HW238331   2.347   5.825  11.895
 2613SOL     OW38332   4.297   0.220  11.851
 2613SOL    HW138333   4.335   0.136  11.888
 2613SOL    HW238334   4.209   0.239  11.895
 2614SOL     OW38335   4.297   2.082  11.851
 2614SOL    HW138336   4.335   1.998  11.888
 2614SOL    HW238337   4.209   2.101  11.895
 2615SOL     OW38338   4.297   3.944  11.851
 2615SOL    HW138339   4.335   3.860  11.888
 2615SOL    HW238340   4.209   3.963  11.895
 2616SOL     OW38341   4.297   5.806  11.851
 2616SOL    HW138342   4.335   5.722  11.888
 2616SOL    HW238343   4.209   5.825  11.895
 2617SOL     OW38344   6.159   0.220  11.851
 2617SOL    HW138345   6.197   0.136  11.888
 2617SOL    HW238346   6.071   0.239  11.895
 2618SOL     OW38347   6.159   2.082  11.851
 2618SOL    HW138348   6.197   1.998  11.888
 2618SOL    HW238349   6.071   2.101  11.895
 2619SOL     OW38350   6.159   3.944  11.851
 2619SOL    HW138351   6.197   3.860  11.888
 2619SOL    HW238352   6.071   3.963  11.895
 2620SOL     OW38353   6.159   5.806  11.851
 2620SOL    HW138354   6.197   5.722  11.888
 2620SOL    HW238355   6.071   5.825  11.895
 2621SOL     OW38356   1.088   0.681   0.996
 2621SOL    HW138357   1.008   0.620   0.999
 2621SOL    HW238358   1.169   0.628   0.972
 2622SOL     OW38359   1.088   2.543   0.996
 2622SOL    HW138360   1.008   2.482   0.999
 2622SOL    HW238361   1.169   2.490   0.972
 2623SOL     OW38362   1.088   4.405   0.996
 2623SOL    HW138363   1.008   4.344   0.999
 2623SOL    HW238364   1.169   4.352   0.972
 2624SOL     OW38365   1.088   6.267   0.996
 2624SOL    HW138366   1.008   6.206   0.999
 2624SOL    HW238367   1.169   6.214   0.972
 2625SOL     OW38368   2.950   0.681   0.996
 2625SOL    HW138369   2.870   0.620   0.999
 2625SOL    HW238370   3.031   0.628   0.972
 2626SOL     OW38371   2.950   2.543   0.996
 2626SOL    HW138372   2.870   2.482   0.999
 2626SOL    HW238373   3.031   2.490   0.972
 2627SOL     OW38374   2.950   4.405   0.996
 2627SOL    HW138375   2.870   4.344   0.999
 2627SOL    HW238376   3.031   4.352   0.972
 2628SOL     OW38377   2.950   6.267   0.996
 2628SOL    HW138378   2.870   6.206   0.999
 2628SOL    HW238379   3.031   6.214   0.972
 2629SOL     OW38380   4.812   0.681   0.996
 2629SOL    HW138381   4.732   0.620   0.999
 2629SOL    HW238382   4.893   0.628   0.972
 2630SOL     OW38383   4.812   2.543   0.996
 2630SOL    HW138384   4.732   2.482   0.999
 2630SOL    HW238385   4.893   2.490   0.972
 2631SOL     OW38386   4.812   4.405   0.996
 2631SOL    HW138387   4.732   4.344   0.999
 2631SOL    HW238388   4.893   4.352   0.972
 2632SOL     OW38389   4.812   6.267   0.996
 2632SOL    HW138390   4.732   6.206   0.999
 2632SOL    HW238391   4.893   6.214   0.972
 2633SOL     OW38392   0.819   0.603   0.997
 2633SOL    HW138393   0.772   0.600   1.086
 2633SOL    HW238394   0.768   0.548   0.931
 2634SOL     OW38395   0.942   1.676   0.997
 2634SOL    HW138396   0.918   1.658   0.902
 2634SOL    HW238397   0.972   1.770   1.007
 2635SOL     OW38398   0.819   2.465   0.997
 2635SOL    HW138399   0.772   2.462   1.086
 2635SOL    HW238400   0.768   2.410   0.931
 2636SOL     OW38401   0.942   3.538   0.997
 2636SOL    HW138402   0.918   3.520   0.902
 2636SOL    HW238403   0.972   3.632   1.007
 2637SOL     OW38404   0.819   4.327   0.997
 2637SOL    HW138405   0.772   4.324   1.086
 2637SOL    HW238406   0.768   4.272   0.931
 2638SOL     OW38407   0.942   5.400   0.997
 2638SOL    HW138408   0.918   5.382   0.902
 2638SOL    HW238409   0.972   5.494   1.007
 2639SOL     OW38410   0.819   6.189   0.997
 2639SOL    HW138411   0.772   6.186   1.086
 2639SOL    HW238412   0.768   6.134   0.931
 2640SOL     OW38413   2.681   0.603   0.997
 2640SOL    HW138414   2.634   0.600   1.086
 2640SOL    HW238415   2.630   0.548   0.931
 2641SOL     OW38416   2.804   1.676   0.997
 2641SOL    HW138417   2.780   1.658   0.902
 2641SOL    HW238418   2.834   1.770   1.007
 2642SOL     OW38419   2.681   2.465   0.997
 2642SOL    HW138420   2.634   2.462   1.086
 2642SOL    HW238421   2.630   2.410   0.931
 2643SOL     OW38422   2.804   3.538   0.997
 2643SOL    HW138423   2.780   3.520   0.902
 2643SOL    HW238424   2.834   3.632   1.007
 2644SOL     OW38425   2.681   4.327   0.997
 2644SOL    HW138426   2.634   4.324   1.086
 2644SOL    HW238427   2.630   4.272   0.931
 2645SOL     OW38428   2.804   5.400   0.997
 2645SOL    HW138429   2.780   5.382   0.902
 2645SOL    HW238430   2.834   5.494   1.007
 2646SOL     OW38431   2.681   6.189   0.997
 2646SOL    HW138432   2.634   6.186   1.086
 2646SOL    HW238433   2.630   6.134   0.931
 2647SOL     OW38434   4.543   0.603   0.997
 2647SOL    HW138435   4.496   0.600   1.086
 2647SOL    HW238436   4.492   0.548   0.931
 2648SOL     OW38437   4.666   1.676   0.997
 2648SOL    HW138438   4.642   1.658   0.902
 2648SOL    HW238439   4.696   1.770   1.007
 2649SOL     OW38440   4.543   2.465   0.997
 2649SOL    HW138441   4.496   2.462   1.086
 2649SOL    HW238442   4.492   2.410   0.931
 2650SOL     OW38443   4.666   3.538   0.997
 2650SOL    HW138444   4.642   3.520   0.902
 2650SOL    HW238445   4.696   3.632   1.007
 2651SOL     OW38446   4.543   4.327   0.997
 2651SOL    HW138447   4.496   4.324   1.086
 2651SOL    HW238448   4.492   4.272   0.931
 2652SOL     OW38449   4.666   5.400   0.997
 2652SOL    HW138450   4.642   5.382   0.902
 2652SOL    HW238451   4.696   5.494   1.007
 2653SOL     OW38452   4.543   6.189   0.997
 2653SOL    HW138453   4.496   6.186   1.086
 2653SOL    HW238454   4.492   6.134   0.931
 2654SOL     OW38455   0.171   1.135   0.998
 2654SOL    HW138456   0.193   1.074   1.074
 2654SOL    HW238457   0.181   1.086   0.912
 2655SOL     OW38458   0.171   2.997   0.998
 2655SOL    HW138459   0.193   2.936   1.074
 2655SOL    HW238460   0.181   2.948   0.912
 2656SOL     OW38461   0.171   4.859   0.998
 2656SOL    HW138462   0.193   4.798   1.074
 2656SOL    HW238463   0.181   4.810   0.912
 2657SOL     OW38464   2.033   1.135   0.998
 2657SOL    HW138465   2.055   1.074   1.074
 2657SOL    HW238466   2.043   1.086   0.912
 2658SOL     OW38467   2.033   2.997   0.998
 2658SOL    HW138468   2.055   2.936   1.074
 2658SOL    HW238469   2.043   2.948   0.912
 2659SOL     OW38470   2.033   4.859   0.998
 2659SOL    HW138471   2.055   4.798   1.074
 2659SOL    HW238472   2.043   4.810   0.912
 2660SOL     OW38473   3.895   1.135   0.998
 2660SOL    HW138474   3.917   1.074   1.074
 2660SOL    HW238475   3.905   1.086   0.912
 2661SOL     OW38476   3.895   2.997   0.998
 2661SOL    HW138477   3.917   2.936   1.074
 2661SOL    HW238478   3.905   2.948   0.912
 2662SOL     OW38479   3.895   4.859   0.998
 2662SOL    HW138480   3.917   4.798   1.074
 2662SOL    HW238481   3.905   4.810   0.912
 2663SOL     OW38482   5.757   1.135   0.998
 2663SOL    HW138483   5.779   1.074   1.074
 2663SOL    HW238484   5.767   1.086   0.912
 2664SOL     OW38485   5.757   2.997   0.998
 2664SOL    HW138486   5.779   2.936   1.074
 2664SOL    HW238487   5.767   2.948   0.912
 2665SOL     OW38488   5.757   4.859   0.998
 2665SOL    HW138489   5.779   4.798   1.074
 2665SOL    HW238490   5.767   4.810   0.912
 2666SOL     OW38491   1.284   1.443  11.846
 2666SOL    HW138492   1.331   1.456  11.933
 2666SOL    HW238493   1.218   1.369  11.855
 2667SOL     OW38494   1.284   3.305  11.846
 2667SOL    HW138495   1.331   3.318  11.933
 2667SOL    HW238496   1.218   3.231  11.855
 2668SOL     OW38497   1.284   5.167  11.846
 2668SOL    HW138498   1.331   5.180  11.933
 2668SOL    HW238499   1.218   5.093  11.855
 2669SOL     OW38500   3.146   1.443  11.846
 2669SOL    HW138501   3.193   1.456  11.933
 2669SOL    HW238502   3.080   1.369  11.855
 2670SOL     OW38503   3.146   3.305  11.846
 2670SOL    HW138504   3.193   3.318  11.933
 2670SOL    HW238505   3.080   3.231  11.855
 2671SOL     OW38506   3.146   5.167  11.846
 2671SOL    HW138507   3.193   5.180  11.933
 2671SOL    HW238508   3.080   5.093  11.855
 2672SOL     OW38509   5.008   1.443  11.846
 2672SOL    HW138510   5.055   1.456  11.933
 2672SOL    HW238511   4.942   1.369  11.855
 2673SOL     OW38512   5.008   3.305  11.846
 2673SOL    HW138513   5.055   3.318  11.933
 2673SOL    HW238514   4.942   3.231  11.855
 2674SOL     OW38515   5.008   5.167  11.846
 2674SOL    HW138516   5.055   5.180  11.933
 2674SOL    HW238517   4.942   5.093  11.855
 2675SOL     OW38518   1.172   0.205   1.009
 2675SOL    HW138519   1.172   0.269   1.086
 2675SOL    HW238520   1.200   0.253   0.926
 2676SOL     OW38521   1.172   2.067   1.009
 2676SOL    HW138522   1.172   2.131   1.086
 2676SOL    HW238523   1.200   2.115   0.926
 2677SOL     OW38524   1.172   3.929   1.009
 2677SOL    HW138525   1.172   3.993   1.086
 2677SOL    HW238526   1.200   3.977   0.926
 2678SOL     OW38527   1.172   5.791   1.009
 2678SOL    HW138528   1.172   5.855   1.086
 2678SOL    HW238529   1.200   5.839   0.926
 2679SOL     OW38530   3.034   0.205   1.009
 2679SOL    HW138531   3.034   0.269   1.086
 2679SOL    HW238532   3.062   0.253   0.926
 2680SOL     OW38533   3.034   2.067   1.009
 2680SOL    HW138534   3.034   2.131   1.086
 2680SOL    HW238535   3.062   2.115   0.926
 2681SOL     OW38536   3.034   3.929   1.009
 2681SOL    HW138537   3.034   3.993   1.086
 2681SOL    HW238538   3.062   3.977   0.926
 2682SOL     OW38539   3.034   5.791   1.009
 2682SOL    HW138540   3.034   5.855   1.086
 2682SOL    HW238541   3.062   5.839   0.926
 2683SOL     OW38542   4.896   0.205   1.009
 2683SOL    HW138543   4.896   0.269   1.086
 2683SOL    HW238544   4.924   0.253   0.926
 2684SOL     OW38545   4.896   2.067   1.009
 2684SOL    HW138546   4.896   2.131   1.086
 2684SOL    HW238547   4.924   2.115   0.926
 2685SOL     OW38548   4.896   3.929   1.009
 2685SOL    HW138549   4.896   3.993   1.086
 2685SOL    HW238550   4.924   3.977   0.926
 2686SOL     OW38551   4.896   5.791   1.009
 2686SOL    HW138552   4.896   5.855   1.086
 2686SOL    HW238553   4.924   5.839   0.926
 2687SOL     OW38554   1.606   0.112   1.012
 2687SOL    HW138555   1.588   0.179   0.940
 2687SOL    HW238556   1.603   0.158   1.101
 2688SOL     OW38557   1.606   1.974   1.012
 2688SOL    HW138558   1.588   2.041   0.940
 2688SOL    HW238559   1.603   2.020   1.101
 2689SOL     OW38560   1.606   3.836   1.012
 2689SOL    HW138561   1.588   3.903   0.940
 2689SOL    HW238562   1.603   3.882   1.101
 2690SOL     OW38563   1.606   5.698   1.012
 2690SOL    HW138564   1.588   5.765   0.940
 2690SOL    HW238565   1.603   5.744   1.101
 2691SOL     OW38566   3.468   0.112   1.012
 2691SOL    HW138567   3.450   0.179   0.940
 2691SOL    HW238568   3.465   0.158   1.101
 2692SOL     OW38569   3.468   1.974   1.012
 2692SOL    HW138570   3.450   2.041   0.940
 2692SOL    HW238571   3.465   2.020   1.101
 2693SOL     OW38572   3.468   3.836   1.012
 2693SOL    HW138573   3.450   3.903   0.940
 2693SOL    HW238574   3.465   3.882   1.101
 2694SOL     OW38575   3.468   5.698   1.012
 2694SOL    HW138576   3.450   5.765   0.940
 2694SOL    HW238577   3.465   5.744   1.101
 2695SOL     OW38578   5.330   0.112   1.012
 2695SOL    HW138579   5.312   0.179   0.940
 2695SOL    HW238580   5.327   0.158   1.101
 2696SOL     OW38581   5.330   1.974   1.012
 2696SOL    HW138582   5.312   2.041   0.940
 2696SOL    HW238583   5.327   2.020   1.101
 2697SOL     OW38584   5.330   3.836   1.012
 2697SOL    HW138585   5.312   3.903   0.940
 2697SOL    HW238586   5.327   3.882   1.101
 2698SOL     OW38587   5.330   5.698   1.012
 2698SOL    HW138588   5.312   5.765   0.940
 2698SOL    HW238589   5.327   5.744   1.101
 2699SOL     OW38590   1.264   1.729  11.832
 2699SOL    HW138591   1.348   1.734  11.778
 2699SOL    HW238592   1.241   1.633  11.850
 2700SOL     OW38593   1.264   3.591  11.832
 2700SOL    HW138594   1.348   3.596  11.778
 2700SOL    HW238595   1.241   3.495  11.850
 2701SOL     OW38596   1.264   5.453  11.832
 2701SOL    HW138597   1.348   5.458  11.778
 2701SOL    HW238598   1.241   5.357  11.850
 2702SOL     OW38599   3.126   1.729  11.832
 2702SOL    HW138600   3.210   1.734  11.778
 2702SOL    HW238601   3.103   1.633  11.850
 2703SOL     OW38602   3.126   3.591  11.832
 2703SOL    HW138603   3.210   3.596  11.778
 2703SOL    HW238604   3.103   3.495  11.850
 2704SOL     OW38605   3.126   5.453  11.832
 2704SOL    HW138606   3.210   5.458  11.778
 2704SOL    HW238607   3.103   5.357  11.850
 2705SOL     OW38608   4.988   1.729  11.832
 2705SOL    HW138609   5.072   1.734  11.778
 2705SOL    HW238610   4.965   1.633  11.850
 2706SOL     OW38611   4.988   3.591  11.832
 2706SOL    HW138612   5.072   3.596  11.778
 2706SOL    HW238613   4.965   3.495  11.850
 2707SOL     OW38614   4.988   5.453  11.832
 2707SOL    HW138615   5.072   5.458  11.778
 2707SOL    HW238616   4.965   5.357  11.850
 2708SOL     OW38617   0.684   0.201   1.021
 2708SOL    HW138618   0.774   0.185   0.981
 2708SOL    HW238619   0.692   0.206   1.120
 2709SOL     OW38620   0.684   2.063   1.021
 2709SOL    HW138621   0.774   2.047   0.981
 2709SOL    HW238622   0.692   2.068   1.120
 2710SOL     OW38623   0.684   3.925   1.021
 2710SOL    HW138624   0.774   3.909   0.981
 2710SOL    HW238625   0.692   3.930   1.120
 2711SOL     OW38626   0.684   5.787   1.021
 2711SOL    HW138627   0.774   5.771   0.981
 2711SOL    HW238628   0.692   5.792   1.120
 2712SOL     OW38629   2.546   0.201   1.021
 2712SOL    HW138630   2.636   0.185   0.981
 2712SOL    HW238631   2.554   0.206   1.120
 2713SOL     OW38632   2.546   2.063   1.021
 2713SOL    HW138633   2.636   2.047   0.981
 2713SOL    HW238634   2.554   2.068   1.120
 2714SOL     OW38635   2.546   3.925   1.021
 2714SOL    HW138636   2.636   3.909   0.981
 2714SOL    HW238637   2.554   3.930   1.120
 2715SOL     OW38638   2.546   5.787   1.021
 2715SOL    HW138639   2.636   5.771   0.981
 2715SOL    HW238640   2.554   5.792   1.120
 2716SOL     OW38641   4.408   0.201   1.021
 2716SOL    HW138642   4.498   0.185   0.981
 2716SOL    HW238643   4.416   0.206   1.120
 2717SOL     OW38644   4.408   2.063   1.021
 2717SOL    HW138645   4.498   2.047   0.981
 2717SOL    HW238646   4.416   2.068   1.120
 2718SOL     OW38647   4.408   3.925   1.021
 2718SOL    HW138648   4.498   3.909   0.981
 2718SOL    HW238649   4.416   3.930   1.120
 2719SOL     OW38650   4.408   5.787   1.021
 2719SOL    HW138651   4.498   5.771   0.981
 2719SOL    HW238652   4.416   5.792   1.120
 2720SOL     OW38653   6.270   0.201   1.021
 2720SOL    HW138654   6.360   0.185   0.981
 2720SOL    HW238655   6.278   0.206   1.120
 2721SOL     OW38656   6.270   2.063   1.021
 2721SOL    HW138657   6.360   2.047   0.981
 2721SOL    HW238658   6.278   2.068   1.120
 2722SOL     OW38659   6.270   3.925   1.021
 2722SOL    HW138660   6.360   3.909   0.981
 2722SOL    HW238661   6.278   3.930   1.120
 2723SOL     OW38662   6.270   5.787   1.021
 2723SOL    HW138663   6.360   5.771   0.981
 2723SOL    HW238664   6.278   5.792   1.120
 2724SOL     OW38665   0.384   1.286   1.022
 2724SOL    HW138666   0.371   1.379   0.988
 2724SOL    HW238667   0.300   1.234   1.009
 2725SOL     OW38668   0.384   3.148   1.022
 2725SOL    HW138669   0.371   3.241   0.988
 2725SOL    HW238670   0.300   3.096   1.009
 2726SOL     OW38671   0.384   5.010   1.022
 2726SOL    HW138672   0.371   5.103   0.988
 2726SOL    HW238673   0.300   4.958   1.009
 2727SOL     OW38674   2.246   1.286   1.022
 2727SOL    HW138675   2.233   1.379   0.988
 2727SOL    HW238676   2.162   1.234   1.009
 2728SOL     OW38677   2.246   3.148   1.022
 2728SOL    HW138678   2.233   3.241   0.988
 2728SOL    HW238679   2.162   3.096   1.009
 2729SOL     OW38680   2.246   5.010   1.022
 2729SOL    HW138681   2.233   5.103   0.988
 2729SOL    HW238682   2.162   4.958   1.009
 2730SOL     OW38683   4.108   1.286   1.022
 2730SOL    HW138684   4.095   1.379   0.988
 2730SOL    HW238685   4.024   1.234   1.009
 2731SOL     OW38686   4.108   3.148   1.022
 2731SOL    HW138687   4.095   3.241   0.988
 2731SOL    HW238688   4.024   3.096   1.009
 2732SOL     OW38689   4.108   5.010   1.022
 2732SOL    HW138690   4.095   5.103   0.988
 2732SOL    HW238691   4.024   4.958   1.009
 2733SOL     OW38692   5.970   1.286   1.022
 2733SOL    HW138693   5.957   1.379   0.988
 2733SOL    HW238694   5.886   1.234   1.009
 2734SOL     OW38695   5.970   3.148   1.022
 2734SOL    HW138696   5.957   3.241   0.988
 2734SOL    HW238697   5.886   3.096   1.009
 2735SOL     OW38698   5.970   5.010   1.022
 2735SOL    HW138699   5.957   5.103   0.988
 2735SOL    HW238700   5.886   4.958   1.009
 2736SOL     OW38701   0.052   0.542  11.818
 2736SOL    HW138702   0.137   0.509  11.777
 2736SOL    HW238703   0.065   0.557  11.916
 2737SOL     OW38704   0.052   2.404  11.818
 2737SOL    HW138705   0.137   2.371  11.777
 2737SOL    HW238706   0.065   2.419  11.916
 2738SOL     OW38707   0.052   4.266  11.818
 2738SOL    HW138708   0.137   4.233  11.777
 2738SOL    HW238709   0.065   4.281  11.916
 2739SOL     OW38710   0.052   6.128  11.818
 2739SOL    HW138711   0.137   6.095  11.777
 2739SOL    HW238712   0.065   6.143  11.916
 2740SOL     OW38713   1.914   0.542  11.818
 2740SOL    HW138714   1.999   0.509  11.777
 2740SOL    HW238715   1.927   0.557  11.916
 2741SOL     OW38716   1.914   2.404  11.818
 2741SOL    HW138717   1.999   2.371  11.777
 2741SOL    HW238718   1.927   2.419  11.916
 2742SOL     OW38719   1.914   4.266  11.818
 2742SOL    HW138720   1.999   4.233  11.777
 2742SOL    HW238721   1.927   4.281  11.916
 2743SOL     OW38722   1.914   6.128  11.818
 2743SOL    HW138723   1.999   6.095  11.777
 2743SOL    HW238724   1.927   6.143  11.916
 2744SOL     OW38725   3.776   0.542  11.818
 2744SOL    HW138726   3.861   0.509  11.777
 2744SOL    HW238727   3.789   0.557  11.916
 2745SOL     OW38728   3.776   2.404  11.818
 2745SOL    HW138729   3.861   2.371  11.777
 2745SOL    HW238730   3.789   2.419  11.916
 2746SOL     OW38731   3.776   4.266  11.818
 2746SOL    HW138732   3.861   4.233  11.777
 2746SOL    HW238733   3.789   4.281  11.916
 2747SOL     OW38734   3.776   6.128  11.818
 2747SOL    HW138735   3.861   6.095  11.777
 2747SOL    HW238736   3.789   6.143  11.916
 2748SOL     OW38737   5.638   0.542  11.818
 2748SOL    HW138738   5.723   0.509  11.777
 2748SOL    HW238739   5.651   0.557  11.916
 2749SOL     OW38740   5.638   2.404  11.818
 2749SOL    HW138741   5.723   2.371  11.777
 2749SOL    HW238742   5.651   2.419  11.916
 2750SOL     OW38743   5.638   4.266  11.818
 2750SOL    HW138744   5.723   4.233  11.777
 2750SOL    HW238745   5.651   4.281  11.916
 2751SOL     OW38746   5.638   6.128  11.818
 2751SOL    HW138747   5.723   6.095  11.777
 2751SOL    HW238748   5.651   6.143  11.916
 2752SOL     OW38749   1.436   0.212  11.816
 2752SOL    HW138750   1.488   0.147  11.871
 2752SOL    HW238751   1.387   0.275  11.877
 2753SOL     OW38752   1.436   2.074  11.816
 2753SOL    HW138753   1.488   2.009  11.871
 2753SOL    HW238754   1.387   2.137  11.877
 2754SOL     OW38755   1.436   3.936  11.816
 2754SOL    HW138756   1.488   3.871  11.871
 2754SOL    HW238757   1.387   3.999  11.877
 2755SOL     OW38758   1.436   5.798  11.816
 2755SOL    HW138759   1.488   5.733  11.871
 2755SOL    HW238760   1.387   5.861  11.877
 2756SOL     OW38761   3.298   0.212  11.816
 2756SOL    HW138762   3.350   0.147  11.871
 2756SOL    HW238763   3.249   0.275  11.877
 2757SOL     OW38764   3.298   2.074  11.816
 2757SOL    HW138765   3.350   2.009  11.871
 2757SOL    HW238766   3.249   2.137  11.877
 2758SOL     OW38767   3.298   3.936  11.816
 2758SOL    HW138768   3.350   3.871  11.871
 2758SOL    HW238769   3.249   3.999  11.877
 2759SOL     OW38770   3.298   5.798  11.816
 2759SOL    HW138771   3.350   5.733  11.871
 2759SOL    HW238772   3.249   5.861  11.877
 2760SOL     OW38773   5.160   0.212  11.816
 2760SOL    HW138774   5.212   0.147  11.871
 2760SOL    HW238775   5.111   0.275  11.877
 2761SOL     OW38776   5.160   2.074  11.816
 2761SOL    HW138777   5.212   2.009  11.871
 2761SOL    HW238778   5.111   2.137  11.877
 2762SOL     OW38779   5.160   3.936  11.816
 2762SOL    HW138780   5.212   3.871  11.871
 2762SOL    HW238781   5.111   3.999  11.877
 2763SOL     OW38782   5.160   5.798  11.816
 2763SOL    HW138783   5.212   5.733  11.871
 2763SOL    HW238784   5.111   5.861  11.877
 2764SOL     OW38785   0.214   0.283   1.030
 2764SOL    HW138786   0.134   0.343   1.017
 2764SOL    HW238787   0.204   0.234   1.116
 2765SOL     OW38788   0.214   2.145   1.030
 2765SOL    HW138789   0.134   2.205   1.017
 2765SOL    HW238790   0.204   2.096   1.116
 2766SOL     OW38791   0.214   4.007   1.030
 2766SOL    HW138792   0.134   4.067   1.017
 2766SOL    HW238793   0.204   3.958   1.116
 2767SOL     OW38794   0.214   5.869   1.030
 2767SOL    HW138795   0.134   5.929   1.017
 2767SOL    HW238796   0.204   5.820   1.116
 2768SOL     OW38797   2.076   0.283   1.030
 2768SOL    HW138798   1.996   0.343   1.017
 2768SOL    HW238799   2.066   0.234   1.116
 2769SOL     OW38800   2.076   2.145   1.030
 2769SOL    HW138801   1.996   2.205   1.017
 2769SOL    HW238802   2.066   2.096   1.116
 2770SOL     OW38803   2.076   4.007   1.030
 2770SOL    HW138804   1.996   4.067   1.017
 2770SOL    HW238805   2.066   3.958   1.116
 2771SOL     OW38806   2.076   5.869   1.030
 2771SOL    HW138807   1.996   5.929   1.017
 2771SOL    HW238808   2.066   5.820   1.116
 2772SOL     OW38809   3.938   0.283   1.030
 2772SOL    HW138810   3.858   0.343   1.017
 2772SOL    HW238811   3.928   0.234   1.116
 2773SOL     OW38812   3.938   2.145   1.030
 2773SOL    HW138813   3.858   2.205   1.017
 2773SOL    HW238814   3.928   2.096   1.116
 2774SOL     OW38815   3.938   4.007   1.030
 2774SOL    HW138816   3.858   4.067   1.017
 2774SOL    HW238817   3.928   3.958   1.116
 2775SOL     OW38818   3.938   5.869   1.030
 2775SOL    HW138819   3.858   5.929   1.017
 2775SOL    HW238820   3.928   5.820   1.116
 2776SOL     OW38821   5.800   0.283   1.030
 2776SOL    HW138822   5.720   0.343   1.017
 2776SOL    HW238823   5.790   0.234   1.116
 2777SOL     OW38824   5.800   2.145   1.030
 2777SOL    HW138825   5.720   2.205   1.017
 2777SOL    HW238826   5.790   2.096   1.116
 2778SOL     OW38827   5.800   4.007   1.030
 2778SOL    HW138828   5.720   4.067   1.017
 2778SOL    HW238829   5.790   3.958   1.116
 2779SOL     OW38830   5.800   5.869   1.030
 2779SOL    HW138831   5.720   5.929   1.017
 2779SOL    HW238832   5.790   5.820   1.116
 2780SOL     OW38833   0.450   0.390   1.031
 2780SOL    HW138834   0.532   0.334   1.040
 2780SOL    HW238835   0.369   0.332   1.035
 2781SOL     OW38836   0.450   2.252   1.031
 2781SOL    HW138837   0.532   2.196   1.040
 2781SOL    HW238838   0.369   2.194   1.035
 2782SOL     OW38839   0.450   4.114   1.031
 2782SOL    HW138840   0.532   4.058   1.040
 2782SOL    HW238841   0.369   4.056   1.035
 2783SOL     OW38842   0.450   5.976   1.031
 2783SOL    HW138843   0.532   5.920   1.040
 2783SOL    HW238844   0.369   5.918   1.035
 2784SOL     OW38845   2.312   0.390   1.031
 2784SOL    HW138846   2.394   0.334   1.040
 2784SOL    HW238847   2.231   0.332   1.035
 2785SOL     OW38848   2.312   2.252   1.031
 2785SOL    HW138849   2.394   2.196   1.040
 2785SOL    HW238850   2.231   2.194   1.035
 2786SOL     OW38851   2.312   4.114   1.031
 2786SOL    HW138852   2.394   4.058   1.040
 2786SOL    HW238853   2.231   4.056   1.035
 2787SOL     OW38854   2.312   5.976   1.031
 2787SOL    HW138855   2.394   5.920   1.040
 2787SOL    HW238856   2.231   5.918   1.035
 2788SOL     OW38857   4.174   0.390   1.031
 2788SOL    HW138858   4.256   0.334   1.040
 2788SOL    HW238859   4.093   0.332   1.035
 2789SOL     OW38860   4.174   2.252   1.031
 2789SOL    HW138861   4.256   2.196   1.040
 2789SOL    HW238862   4.093   2.194   1.035
 2790SOL     OW38863   4.174   4.114   1.031
 2790SOL    HW138864   4.256   4.058   1.040
 2790SOL    HW238865   4.093   4.056   1.035
 2791SOL     OW38866   4.174   5.976   1.031
 2791SOL    HW138867   4.256   5.920   1.040
 2791SOL    HW238868   4.093   5.918   1.035
 2792SOL     OW38869   6.036   0.390   1.031
 2792SOL    HW138870   6.118   0.334   1.040
 2792SOL    HW238871   5.955   0.332   1.035
 2793SOL     OW38872   6.036   2.252   1.031
 2793SOL    HW138873   6.118   2.196   1.040
 2793SOL    HW238874   5.955   2.194   1.035
 2794SOL     OW38875   6.036   4.114   1.031
 2794SOL    HW138876   6.118   4.058   1.040
 2794SOL    HW238877   5.955   4.056   1.035
 2795SOL     OW38878   6.036   5.976   1.031
 2795SOL    HW138879   6.118   5.920   1.040
 2795SOL    HW238880   5.955   5.918   1.035
 2796SOL     OW38881   1.717   1.485  11.808
 2796SOL    HW138882   1.624   1.460  11.781
 2796SOL    HW238883   1.743   1.435  11.890
 2797SOL     OW38884   1.717   3.347  11.808
 2797SOL    HW138885   1.624   3.322  11.781
 2797SOL    HW238886   1.743   3.297  11.890
 2798SOL     OW38887   1.717   5.209  11.808
 2798SOL    HW138888   1.624   5.184  11.781
 2798SOL    HW238889   1.743   5.159  11.890
 2799SOL     OW38890   3.579   1.485  11.808
 2799SOL    HW138891   3.486   1.460  11.781
 2799SOL    HW238892   3.605   1.435  11.890
 2800SOL     OW38893   3.579   3.347  11.808
 2800SOL    HW138894   3.486   3.322  11.781
 2800SOL    HW238895   3.605   3.297  11.890
 2801SOL     OW38896   3.579   5.209  11.808
 2801SOL    HW138897   3.486   5.184  11.781
 2801SOL    HW238898   3.605   5.159  11.890
 2802SOL     OW38899   5.441   1.485  11.808
 2802SOL    HW138900   5.348   1.460  11.781
 2802SOL    HW238901   5.467   1.435  11.890
 2803SOL     OW38902   5.441   3.347  11.808
 2803SOL    HW138903   5.348   3.322  11.781
 2803SOL    HW238904   5.467   3.297  11.890
 2804SOL     OW38905   5.441   5.209  11.808
 2804SOL    HW138906   5.348   5.184  11.781
 2804SOL    HW238907   5.467   5.159  11.890
 2805SOL     OW38908   1.239   1.548   1.038
 2805SOL    HW138909   1.245   1.471   1.102
 2805SOL    HW238910   1.187   1.522   0.958
 2806SOL     OW38911   1.239   3.410   1.038
 2806SOL    HW138912   1.245   3.333   1.102
 2806SOL    HW238913   1.187   3.384   0.958
 2807SOL     OW38914   1.239   5.272   1.038
 2807SOL    HW138915   1.245   5.195   1.102
 2807SOL    HW238916   1.187   5.246   0.958
 2808SOL     OW38917   3.101   1.548   1.038
 2808SOL    HW138918   3.107   1.471   1.102
 2808SOL    HW238919   3.049   1.522   0.958
 2809SOL     OW38920   3.101   3.410   1.038
 2809SOL    HW138921   3.107   3.333   1.102
 2809SOL    HW238922   3.049   3.384   0.958
 2810SOL     OW38923   3.101   5.272   1.038
 2810SOL    HW138924   3.107   5.195   1.102
 2810SOL    HW238925   3.049   5.246   0.958
 2811SOL     OW38926   4.963   1.548   1.038
 2811SOL    HW138927   4.969   1.471   1.102
 2811SOL    HW238928   4.911   1.522   0.958
 2812SOL     OW38929   4.963   3.410   1.038
 2812SOL    HW138930   4.969   3.333   1.102
 2812SOL    HW238931   4.911   3.384   0.958
 2813SOL     OW38932   4.963   5.272   1.038
 2813SOL    HW138933   4.969   5.195   1.102
 2813SOL    HW238934   4.911   5.246   0.958
 2814SOL     OW38935   1.123   1.193  11.804
 2814SOL    HW138936   1.083   1.237  11.885
 2814SOL    HW238937   1.082   1.230  11.721
 2815SOL     OW38938   1.123   3.055  11.804
 2815SOL    HW138939   1.083   3.099  11.885
 2815SOL    HW238940   1.082   3.092  11.721
 2816SOL     OW38941   1.123   4.917  11.804
 2816SOL    HW138942   1.083   4.961  11.885
 2816SOL    HW238943   1.082   4.954  11.721
 2817SOL     OW38944   2.985   1.193  11.804
 2817SOL    HW138945   2.945   1.237  11.885
 2817SOL    HW238946   2.944   1.230  11.721
 2818SOL     OW38947   2.985   3.055  11.804
 2818SOL    HW138948   2.945   3.099  11.885
 2818SOL    HW238949   2.944   3.092  11.721
 2819SOL     OW38950   2.985   4.917  11.804
 2819SOL    HW138951   2.945   4.961  11.885
 2819SOL    HW238952   2.944   4.954  11.721
 2820SOL     OW38953   4.847   1.193  11.804
 2820SOL    HW138954   4.807   1.237  11.885
 2820SOL    HW238955   4.806   1.230  11.721
 2821SOL     OW38956   4.847   3.055  11.804
 2821SOL    HW138957   4.807   3.099  11.885
 2821SOL    HW238958   4.806   3.092  11.721
 2822SOL     OW38959   4.847   4.917  11.804
 2822SOL    HW138960   4.807   4.961  11.885
 2822SOL    HW238961   4.806   4.954  11.721
 2823SOL     OW38962   1.742   0.932   1.049
 2823SOL    HW138963   1.780   1.023   1.064
 2823SOL    HW238964   1.734   0.915   0.950
 2824SOL     OW38965   1.742   2.794   1.049
 2824SOL    HW138966   1.780   2.885   1.064
 2824SOL    HW238967   1.734   2.777   0.950
 2825SOL     OW38968   1.742   4.656   1.049
 2825SOL    HW138969   1.780   4.747   1.064
 2825SOL    HW238970   1.734   4.639   0.950
 2826SOL     OW38971   3.604   0.932   1.049
 2826SOL    HW138972   3.642   1.023   1.064
 2826SOL    HW238973   3.596   0.915   0.950
 2827SOL     OW38974   3.604   2.794   1.049
 2827SOL    HW138975   3.642   2.885   1.064
 2827SOL    HW238976   3.596   2.777   0.950
 2828SOL     OW38977   3.604   4.656   1.049
 2828SOL    HW138978   3.642   4.747   1.064
 2828SOL    HW238979   3.596   4.639   0.950
 2829SOL     OW38980   5.466   0.932   1.049
 2829SOL    HW138981   5.504   1.023   1.064
 2829SOL    HW238982   5.458   0.915   0.950
 2830SOL     OW38983   5.466   2.794   1.049
 2830SOL    HW138984   5.504   2.885   1.064
 2830SOL    HW238985   5.458   2.777   0.950
 2831SOL     OW38986   5.466   4.656   1.049
 2831SOL    HW138987   5.504   4.747   1.064
 2831SOL    HW238988   5.458   4.639   0.950
 2832SOL     OW38989   1.650   1.097  11.783
 2832SOL    HW138990   1.655   1.178  11.842
 2832SOL    HW238991   1.564   1.099  11.732
 2833SOL     OW38992   1.650   2.959  11.783
 2833SOL    HW138993   1.655   3.040  11.842
 2833SOL    HW238994   1.564   2.961  11.732
 2834SOL     OW38995   1.650   4.821  11.783
 2834SOL    HW138996   1.655   4.902  11.842
 2834SOL    HW238997   1.564   4.823  11.732
 2835SOL     OW38998   3.512   1.097  11.783
 2835SOL    HW138999   3.517   1.178  11.842
 2835SOL    HW239000   3.426   1.099  11.732
 2836SOL     OW39001   3.512   2.959  11.783
 2836SOL    HW139002   3.517   3.040  11.842
 2836SOL    HW239003   3.426   2.961  11.732
 2837SOL     OW39004   3.512   4.821  11.783
 2837SOL    HW139005   3.517   4.902  11.842
 2837SOL    HW239006   3.426   4.823  11.732
 2838SOL     OW39007   5.374   1.097  11.783
 2838SOL    HW139008   5.379   1.178  11.842
 2838SOL    HW239009   5.288   1.099  11.732
 2839SOL     OW39010   5.374   2.959  11.783
 2839SOL    HW139011   5.379   3.040  11.842
 2839SOL    HW239012   5.288   2.961  11.732
 2840SOL     OW39013   5.374   4.821  11.783
 2840SOL    HW139014   5.379   4.902  11.842
 2840SOL    HW239015   5.288   4.823  11.732
 2841SOL     OW39016   0.744   0.632  11.768
 2841SOL    HW139017   0.803   0.606  11.692
 2841SOL    HW239018   0.716   0.728  11.757
 2842SOL     OW39019   0.744   2.494  11.768
 2842SOL    HW139020   0.803   2.468  11.692
 2842SOL    HW239021   0.716   2.590  11.757
 2843SOL     OW39022   0.744   4.356  11.768
 2843SOL    HW139023   0.803   4.330  11.692
 2843SOL    HW239024   0.716   4.452  11.757
 2844SOL     OW39025   0.744   6.218  11.768
 2844SOL    HW139026   0.803   6.192  11.692
 2844SOL    HW239027   0.716   6.314  11.757
 2845SOL     OW39028   2.606   0.632  11.768
 2845SOL    HW139029   2.665   0.606  11.692
 2845SOL    HW239030   2.578   0.728  11.757
 2846SOL     OW39031   2.606   2.494  11.768
 2846SOL    HW139032   2.665   2.468  11.692
 2846SOL    HW239033   2.578   2.590  11.757
 2847SOL     OW39034   2.606   4.356  11.768
 2847SOL    HW139035   2.665   4.330  11.692
 2847SOL    HW239036   2.578   4.452  11.757
 2848SOL     OW39037   2.606   6.218  11.768
 2848SOL    HW139038   2.665   6.192  11.692
 2848SOL    HW239039   2.578   6.314  11.757
 2849SOL     OW39040   4.468   0.632  11.768
 2849SOL    HW139041   4.527   0.606  11.692
 2849SOL    HW239042   4.440   0.728  11.757
 2850SOL     OW39043   4.468   2.494  11.768
 2850SOL    HW139044   4.527   2.468  11.692
 2850SOL    HW239045   4.440   2.590  11.757
 2851SOL     OW39046   4.468   4.356  11.768
 2851SOL    HW139047   4.527   4.330  11.692
 2851SOL    HW239048   4.440   4.452  11.757
 2852SOL     OW39049   4.468   6.218  11.768
 2852SOL    HW139050   4.527   6.192  11.692
 2852SOL    HW239051   4.440   6.314  11.757
 2853SOL     OW39052   6.330   0.632  11.768
 2853SOL    HW139053   6.389   0.606  11.692
 2853SOL    HW239054   6.302   0.728  11.757
 2854SOL     OW39055   6.330   2.494  11.768
 2854SOL    HW139056   6.389   2.468  11.692
 2854SOL    HW239057   6.302   2.590  11.757
 2855SOL     OW39058   6.330   4.356  11.768
 2855SOL    HW139059   6.389   4.330  11.692
 2855SOL    HW239060   6.302   4.452  11.757
 2856SOL     OW39061   6.330   6.218  11.768
 2856SOL    HW139062   6.389   6.192  11.692
 2856SOL    HW239063   6.302   6.314  11.757
 2857SOL     OW39064   0.347   1.433  11.765
 2857SOL    HW139065   0.269   1.402  11.712
 2857SOL    HW239066   0.405   1.491  11.708
 2858SOL     OW39067   0.347   3.295  11.765
 2858SOL    HW139068   0.269   3.264  11.712
 2858SOL    HW239069   0.405   3.353  11.708
 2859SOL     OW39070   0.347   5.157  11.765
 2859SOL    HW139071   0.269   5.126  11.712
 2859SOL    HW239072   0.405   5.215  11.708
 2860SOL     OW39073   2.209   1.433  11.765
 2860SOL    HW139074   2.131   1.402  11.712
 2860SOL    HW239075   2.267   1.491  11.708
 2861SOL     OW39076   2.209   3.295  11.765
 2861SOL    HW139077   2.131   3.264  11.712
 2861SOL    HW239078   2.267   3.353  11.708
 2862SOL     OW39079   2.209   5.157  11.765
 2862SOL    HW139080   2.131   5.126  11.712
 2862SOL    HW239081   2.267   5.215  11.708
 2863SOL     OW39082   4.071   1.433  11.765
 2863SOL    HW139083   3.993   1.402  11.712
 2863SOL    HW239084   4.129   1.491  11.708
 2864SOL     OW39085   4.071   3.295  11.765
 2864SOL    HW139086   3.993   3.264  11.712
 2864SOL    HW239087   4.129   3.353  11.708
 2865SOL     OW39088   4.071   5.157  11.765
 2865SOL    HW139089   3.993   5.126  11.712
 2865SOL    HW239090   4.129   5.215  11.708
 2866SOL     OW39091   5.933   1.433  11.765
 2866SOL    HW139092   5.855   1.402  11.712
 2866SOL    HW239093   5.991   1.491  11.708
 2867SOL     OW39094   5.933   3.295  11.765
 2867SOL    HW139095   5.855   3.264  11.712
 2867SOL    HW239096   5.991   3.353  11.708
 2868SOL     OW39097   5.933   5.157  11.765
 2868SOL    HW139098   5.855   5.126  11.712
 2868SOL    HW239099   5.991   5.215  11.708
 2869SOL     OW39100   0.402   1.739   1.092
 2869SOL    HW139101   0.311   1.780   1.090
 2869SOL    HW239102   0.395   1.645   1.124
 2870SOL     OW39103   0.402   3.601   1.092
 2870SOL    HW139104   0.311   3.642   1.090
 2870SOL    HW239105   0.395   3.507   1.124
 2871SOL     OW39106   0.402   5.463   1.092
 2871SOL    HW139107   0.311   5.504   1.090
 2871SOL    HW239108   0.395   5.369   1.124
 2872SOL     OW39109   2.264   1.739   1.092
 2872SOL    HW139110   2.173   1.780   1.090
 2872SOL    HW239111   2.257   1.645   1.124
 2873SOL     OW39112   2.264   3.601   1.092
 2873SOL    HW139113   2.173   3.642   1.090
 2873SOL    HW239114   2.257   3.507   1.124
 2874SOL     OW39115   2.264   5.463   1.092
 2874SOL    HW139116   2.173   5.504   1.090
 2874SOL    HW239117   2.257   5.369   1.124
 2875SOL     OW39118   4.126   1.739   1.092
 2875SOL    HW139119   4.035   1.780   1.090
 2875SOL    HW239120   4.119   1.645   1.124
 2876SOL     OW39121   4.126   3.601   1.092
 2876SOL    HW139122   4.035   3.642   1.090
 2876SOL    HW239123   4.119   3.507   1.124
 2877SOL     OW39124   4.126   5.463   1.092
 2877SOL    HW139125   4.035   5.504   1.090
 2877SOL    HW239126   4.119   5.369   1.124
 2878SOL     OW39127   5.988   1.739   1.092
 2878SOL    HW139128   5.897   1.780   1.090
 2878SOL    HW239129   5.981   1.645   1.124
 2879SOL     OW39130   5.988   3.601   1.092
 2879SOL    HW139131   5.897   3.642   1.090
 2879SOL    HW239132   5.981   3.507   1.124
 2880SOL     OW39133   5.988   5.463   1.092
 2880SOL    HW139134   5.897   5.504   1.090
 2880SOL    HW239135   5.981   5.369   1.124
 2881SOL     OW39136   1.372   0.860  11.749
 2881SOL    HW139137   1.297   0.860  11.683
 2881SOL    HW239138   1.409   0.768  11.758
 2882SOL     OW39139   1.372   2.722  11.749
 2882SOL    HW139140   1.297   2.722  11.683
 2882SOL    HW239141   1.409   2.630  11.758
 2883SOL     OW39142   1.372   4.584  11.749
 2883SOL    HW139143   1.297   4.584  11.683
 2883SOL    HW239144   1.409   4.492  11.758
 2884SOL     OW39145   1.372   6.446  11.749
 2884SOL    HW139146   1.297   6.446  11.683
 2884SOL    HW239147   1.409   6.354  11.758
 2885SOL     OW39148   3.234   0.860  11.749
 2885SOL    HW139149   3.159   0.860  11.683
 2885SOL    HW239150   3.271   0.768  11.758
 2886SOL     OW39151   3.234   2.722  11.749
 2886SOL    HW139152   3.159   2.722  11.683
 2886SOL    HW239153   3.271   2.630  11.758
 2887SOL     OW39154   3.234   4.584  11.749
 2887SOL    HW139155   3.159   4.584  11.683
 2887SOL    HW239156   3.271   4.492  11.758
 2888SOL     OW39157   3.234   6.446  11.749
 2888SOL    HW139158   3.159   6.446  11.683
 2888SOL    HW239159   3.271   6.354  11.758
 2889SOL     OW39160   5.096   0.860  11.749
 2889SOL    HW139161   5.021   0.860  11.683
 2889SOL    HW239162   5.133   0.768  11.758
 2890SOL     OW39163   5.096   2.722  11.749
 2890SOL    HW139164   5.021   2.722  11.683
 2890SOL    HW239165   5.133   2.630  11.758
 2891SOL     OW39166   5.096   4.584  11.749
 2891SOL    HW139167   5.021   4.584  11.683
 2891SOL    HW239168   5.133   4.492  11.758
 2892SOL     OW39169   5.096   6.446  11.749
 2892SOL    HW139170   5.021   6.446  11.683
 2892SOL    HW239171   5.133   6.354  11.758
 2893SOL     OW39172   0.142   1.819   1.103
 2893SOL    HW139173   0.132   1.804   1.202
 2893SOL    HW239174   0.056   1.855   1.067
 2894SOL     OW39175   0.142   3.681   1.103
 2894SOL    HW139176   0.132   3.666   1.202
 2894SOL    HW239177   0.056   3.717   1.067
 2895SOL     OW39178   0.142   5.543   1.103
 2895SOL    HW139179   0.132   5.528   1.202
 2895SOL    HW239180   0.056   5.579   1.067
 2896SOL     OW39181   2.004   1.819   1.103
 2896SOL    HW139182   1.994   1.804   1.202
 2896SOL    HW239183   1.918   1.855   1.067
 2897SOL     OW39184   2.004   3.681   1.103
 2897SOL    HW139185   1.994   3.666   1.202
 2897SOL    HW239186   1.918   3.717   1.067
 2898SOL     OW39187   2.004   5.543   1.103
 2898SOL    HW139188   1.994   5.528   1.202
 2898SOL    HW239189   1.918   5.579   1.067
 2899SOL     OW39190   3.866   1.819   1.103
 2899SOL    HW139191   3.856   1.804   1.202
 2899SOL    HW239192   3.780   1.855   1.067
 2900SOL     OW39193   3.866   3.681   1.103
 2900SOL    HW139194   3.856   3.666   1.202
 2900SOL    HW239195   3.780   3.717   1.067
 2901SOL     OW39196   3.866   5.543   1.103
 2901SOL    HW139197   3.856   5.528   1.202
 2901SOL    HW239198   3.780   5.579   1.067
 2902SOL     OW39199   5.728   1.819   1.103
 2902SOL    HW139200   5.718   1.804   1.202
 2902SOL    HW239201   5.642   1.855   1.067
 2903SOL     OW39202   5.728   3.681   1.103
 2903SOL    HW139203   5.718   3.666   1.202
 2903SOL    HW239204   5.642   3.717   1.067
 2904SOL     OW39205   5.728   5.543   1.103
 2904SOL    HW139206   5.718   5.528   1.202
 2904SOL    HW239207   5.642   5.579   1.067
 2905SOL     OW39208   0.985   0.888   1.104
 2905SOL    HW139209   1.031   0.804   1.075
 2905SOL    HW239210   0.929   0.922   1.029
 2906SOL     OW39211   0.985   2.750   1.104
 2906SOL    HW139212   1.031   2.666   1.075
 2906SOL    HW239213   0.929   2.784   1.029
 2907SOL     OW39214   0.985   4.612   1.104
 2907SOL    HW139215   1.031   4.528   1.075
 2907SOL    HW239216   0.929   4.646   1.029
 2908SOL     OW39217   2.847   0.888   1.104
 2908SOL    HW139218   2.893   0.804   1.075
 2908SOL    HW239219   2.791   0.922   1.029
 2909SOL     OW39220   2.847   2.750   1.104
 2909SOL    HW139221   2.893   2.666   1.075
 2909SOL    HW239222   2.791   2.784   1.029
 2910SOL     OW39223   2.847   4.612   1.104
 2910SOL    HW139224   2.893   4.528   1.075
 2910SOL    HW239225   2.791   4.646   1.029
 2911SOL     OW39226   4.709   0.888   1.104
 2911SOL    HW139227   4.755   0.804   1.075
 2911SOL    HW239228   4.653   0.922   1.029
 2912SOL     OW39229   4.709   2.750   1.104
 2912SOL    HW139230   4.755   2.666   1.075
 2912SOL    HW239231   4.653   2.784   1.029
 2913SOL     OW39232   4.709   4.612   1.104
 2913SOL    HW139233   4.755   4.528   1.075
 2913SOL    HW239234   4.653   4.646   1.029
 2914SOL     OW39235   0.585   0.868  11.733
 2914SOL    HW139236   0.629   0.957  11.724
 2914SOL    HW239237   0.522   0.868  11.810
 2915SOL     OW39238   0.585   2.730  11.733
 2915SOL    HW139239   0.629   2.819  11.724
 2915SOL    HW239240   0.522   2.730  11.810
 2916SOL     OW39241   0.585   4.592  11.733
 2916SOL    HW139242   0.629   4.681  11.724
 2916SOL    HW239243   0.522   4.592  11.810
 2917SOL     OW39244   2.447   0.868  11.733
 2917SOL    HW139245   2.491   0.957  11.724
 2917SOL    HW239246   2.384   0.868  11.810
 2918SOL     OW39247   2.447   2.730  11.733
 2918SOL    HW139248   2.491   2.819  11.724
 2918SOL    HW239249   2.384   2.730  11.810
 2919SOL     OW39250   2.447   4.592  11.733
 2919SOL    HW139251   2.491   4.681  11.724
 2919SOL    HW239252   2.384   4.592  11.810
 2920SOL     OW39253   4.309   0.868  11.733
 2920SOL    HW139254   4.353   0.957  11.724
 2920SOL    HW239255   4.246   0.868  11.810
 2921SOL     OW39256   4.309   2.730  11.733
 2921SOL    HW139257   4.353   2.819  11.724
 2921SOL    HW239258   4.246   2.730  11.810
 2922SOL     OW39259   4.309   4.592  11.733
 2922SOL    HW139260   4.353   4.681  11.724
 2922SOL    HW239261   4.246   4.592  11.810
 2923SOL     OW39262   6.171   0.868  11.733
 2923SOL    HW139263   6.215   0.957  11.724
 2923SOL    HW239264   6.108   0.868  11.810
 2924SOL     OW39265   6.171   2.730  11.733
 2924SOL    HW139266   6.215   2.819  11.724
 2924SOL    HW239267   6.108   2.730  11.810
 2925SOL     OW39268   6.171   4.592  11.733
 2925SOL    HW139269   6.215   4.681  11.724
 2925SOL    HW239270   6.108   4.592  11.810
 2926SOL     OW39271   0.780   1.142  11.727
 2926SOL    HW139272   0.702   1.159  11.787
 2926SOL    HW239273   0.814   1.229  11.691
 2927SOL     OW39274   0.780   3.004  11.727
 2927SOL    HW139275   0.702   3.021  11.787
 2927SOL    HW239276   0.814   3.091  11.691
 2928SOL     OW39277   0.780   4.866  11.727
 2928SOL    HW139278   0.702   4.883  11.787
 2928SOL    HW239279   0.814   4.953  11.691
 2929SOL     OW39280   2.642   1.142  11.727
 2929SOL    HW139281   2.564   1.159  11.787
 2929SOL    HW239282   2.676   1.229  11.691
 2930SOL     OW39283   2.642   3.004  11.727
 2930SOL    HW139284   2.564   3.021  11.787
 2930SOL    HW239285   2.676   3.091  11.691
 2931SOL     OW39286   2.642   4.866  11.727
 2931SOL    HW139287   2.564   4.883  11.787
 2931SOL    HW239288   2.676   4.953  11.691
 2932SOL     OW39289   4.504   1.142  11.727
 2932SOL    HW139290   4.426   1.159  11.787
 2932SOL    HW239291   4.538   1.229  11.691
 2933SOL     OW39292   4.504   3.004  11.727
 2933SOL    HW139293   4.426   3.021  11.787
 2933SOL    HW239294   4.538   3.091  11.691
 2934SOL     OW39295   4.504   4.866  11.727
 2934SOL    HW139296   4.426   4.883  11.787
 2934SOL    HW239297   4.538   4.953  11.691
 2935SOL     OW39298   0.095   1.256  11.726
 2935SOL    HW139299   0.090   1.255  11.826
 2935SOL    HW239300   0.012   1.215  11.688
 2936SOL     OW39301   0.095   3.118  11.726
 2936SOL    HW139302   0.090   3.117  11.826
 2936SOL    HW239303   0.012   3.077  11.688
 2937SOL     OW39304   0.095   4.980  11.726
 2937SOL    HW139305   0.090   4.979  11.826
 2937SOL    HW239306   0.012   4.939  11.688
 2938SOL     OW39307   1.957   1.256  11.726
 2938SOL    HW139308   1.952   1.255  11.826
 2938SOL    HW239309   1.874   1.215  11.688
 2939SOL     OW39310   1.957   3.118  11.726
 2939SOL    HW139311   1.952   3.117  11.826
 2939SOL    HW239312   1.874   3.077  11.688
 2940SOL     OW39313   1.957   4.980  11.726
 2940SOL    HW139314   1.952   4.979  11.826
 2940SOL    HW239315   1.874   4.939  11.688
 2941SOL     OW39316   3.819   1.256  11.726
 2941SOL    HW139317   3.814   1.255  11.826
 2941SOL    HW239318   3.736   1.215  11.688
 2942SOL     OW39319   3.819   3.118  11.726
 2942SOL    HW139320   3.814   3.117  11.826
 2942SOL    HW239321   3.736   3.077  11.688
 2943SOL     OW39322   3.819   4.980  11.726
 2943SOL    HW139323   3.814   4.979  11.826
 2943SOL    HW239324   3.736   4.939  11.688
 2944SOL     OW39325   5.681   1.256  11.726
 2944SOL    HW139326   5.676   1.255  11.826
 2944SOL    HW239327   5.598   1.215  11.688
 2945SOL     OW39328   5.681   3.118  11.726
 2945SOL    HW139329   5.676   3.117  11.826
 2945SOL    HW239330   5.598   3.077  11.688
 2946SOL     OW39331   5.681   4.980  11.726
 2946SOL    HW139332   5.676   4.979  11.826
 2946SOL    HW239333   5.598   4.939  11.688
 2947SOL     OW39334   1.766   1.221   1.120
 2947SOL    HW139335   1.857   1.182   1.107
 2947SOL    HW239336   1.774   1.317   1.144
 2948SOL     OW39337   1.766   3.083   1.120
 2948SOL    HW139338   1.857   3.044   1.107
 2948SOL    HW239339   1.774   3.179   1.144
 2949SOL     OW39340   1.766   4.945   1.120
 2949SOL    HW139341   1.857   4.906   1.107
 2949SOL    HW239342   1.774   5.041   1.144
 2950SOL     OW39343   3.628   1.221   1.120
 2950SOL    HW139344   3.719   1.182   1.107
 2950SOL    HW239345   3.636   1.317   1.144
 2951SOL     OW39346   3.628   3.083   1.120
 2951SOL    HW139347   3.719   3.044   1.107
 2951SOL    HW239348   3.636   3.179   1.144
 2952SOL     OW39349   3.628   4.945   1.120
 2952SOL    HW139350   3.719   4.906   1.107
 2952SOL    HW239351   3.636   5.041   1.144
 2953SOL     OW39352   5.490   1.221   1.120
 2953SOL    HW139353   5.581   1.182   1.107
 2953SOL    HW239354   5.498   1.317   1.144
 2954SOL     OW39355   5.490   3.083   1.120
 2954SOL    HW139356   5.581   3.044   1.107
 2954SOL    HW239357   5.498   3.179   1.144
 2955SOL     OW39358   5.490   4.945   1.120
 2955SOL    HW139359   5.581   4.906   1.107
 2955SOL    HW239360   5.498   5.041   1.144
 2956SOL     OW39361   0.125   0.735   1.129
 2956SOL    HW139362   0.213   0.722   1.174
 2956SOL    HW239363   0.112   0.832   1.107
 2957SOL     OW39364   0.125   2.597   1.129
 2957SOL    HW139365   0.213   2.584   1.174
 2957SOL    HW239366   0.112   2.694   1.107
 2958SOL     OW39367   0.125   4.459   1.129
 2958SOL    HW139368   0.213   4.446   1.174
 2958SOL    HW239369   0.112   4.556   1.107
 2959SOL     OW39370   0.125   6.321   1.129
 2959SOL    HW139371   0.213   6.308   1.174
 2959SOL    HW239372   0.112   6.418   1.107
 2960SOL     OW39373   1.987   0.735   1.129
 2960SOL    HW139374   2.075   0.722   1.174
 2960SOL    HW239375   1.974   0.832   1.107
 2961SOL     OW39376   1.987   2.597   1.129
 2961SOL    HW139377   2.075   2.584   1.174
 2961SOL    HW239378   1.974   2.694   1.107
 2962SOL     OW39379   1.987   4.459   1.129
 2962SOL    HW139380   2.075   4.446   1.174
 2962SOL    HW239381   1.974   4.556   1.107
 2963SOL     OW39382   1.987   6.321   1.129
 2963SOL    HW139383   2.075   6.308   1.174
 2963SOL    HW239384   1.974   6.418   1.107
 2964SOL     OW39385   3.849   0.735   1.129
 2964SOL    HW139386   3.937   0.722   1.174
 2964SOL    HW239387   3.836   0.832   1.107
 2965SOL     OW39388   3.849   2.597   1.129
 2965SOL    HW139389   3.937   2.584   1.174
 2965SOL    HW239390   3.836   2.694   1.107
 2966SOL     OW39391   3.849   4.459   1.129
 2966SOL    HW139392   3.937   4.446   1.174
 2966SOL    HW239393   3.836   4.556   1.107
 2967SOL     OW39394   3.849   6.321   1.129
 2967SOL    HW139395   3.937   6.308   1.174
 2967SOL    HW239396   3.836   6.418   1.107
 2968SOL     OW39397   5.711   0.735   1.129
 2968SOL    HW139398   5.799   0.722   1.174
 2968SOL    HW239399   5.698   0.832   1.107
 2969SOL     OW39400   5.711   2.597   1.129
 2969SOL    HW139401   5.799   2.584   1.174
 2969SOL    HW239402   5.698   2.694   1.107
 2970SOL     OW39403   5.711   4.459   1.129
 2970SOL    HW139404   5.799   4.446   1.174
 2970SOL    HW239405   5.698   4.556   1.107
 2971SOL     OW39406   5.711   6.321   1.129
 2971SOL    HW139407   5.799   6.308   1.174
 2971SOL    HW239408   5.698   6.418   1.107
 2972SOL     OW39409   0.414   0.749   1.130
 2972SOL    HW139410   0.482   0.804   1.083
 2972SOL    HW239411   0.454   0.661   1.157
 2973SOL     OW39412   0.414   2.611   1.130
 2973SOL    HW139413   0.482   2.666   1.083
 2973SOL    HW239414   0.454   2.523   1.157
 2974SOL     OW39415   0.414   4.473   1.130
 2974SOL    HW139416   0.482   4.528   1.083
 2974SOL    HW239417   0.454   4.385   1.157
 2975SOL     OW39418   2.276   0.749   1.130
 2975SOL    HW139419   2.344   0.804   1.083
 2975SOL    HW239420   2.316   0.661   1.157
 2976SOL     OW39421   2.276   2.611   1.130
 2976SOL    HW139422   2.344   2.666   1.083
 2976SOL    HW239423   2.316   2.523   1.157
 2977SOL     OW39424   2.276   4.473   1.130
 2977SOL    HW139425   2.344   4.528   1.083
 2977SOL    HW239426   2.316   4.385   1.157
 2978SOL     OW39427   4.138   0.749   1.130
 2978SOL    HW139428   4.206   0.804   1.083
 2978SOL    HW239429   4.178   0.661   1.157
 2979SOL     OW39430   4.138   2.611   1.130
 2979SOL    HW139431   4.206   2.666   1.083
 2979SOL    HW239432   4.178   2.523   1.157
 2980SOL     OW39433   4.138   4.473   1.130
 2980SOL    HW139434   4.206   4.528   1.083
 2980SOL    HW239435   4.178   4.385   1.157
 2981SOL     OW39436   6.000   0.749   1.130
 2981SOL    HW139437   6.068   0.804   1.083
 2981SOL    HW239438   6.040   0.661   1.157
 2982SOL     OW39439   6.000   2.611   1.130
 2982SOL    HW139440   6.068   2.666   1.083
 2982SOL    HW239441   6.040   2.523   1.157
 2983SOL     OW39442   6.000   4.473   1.130
 2983SOL    HW139443   6.068   4.528   1.083
 2983SOL    HW239444   6.040   4.385   1.157
 2984SOL     OW39445   0.351   0.507  11.710
 2984SOL    HW139446   0.299   0.424  11.693
 2984SOL    HW239447   0.428   0.512  11.646
 2985SOL     OW39448   0.351   2.369  11.710
 2985SOL    HW139449   0.299   2.286  11.693
 2985SOL    HW239450   0.428   2.374  11.646
 2986SOL     OW39451   0.351   4.231  11.710
 2986SOL    HW139452   0.299   4.148  11.693
 2986SOL    HW239453   0.428   4.236  11.646
 2987SOL     OW39454   0.351   6.093  11.710
 2987SOL    HW139455   0.299   6.010  11.693
 2987SOL    HW239456   0.428   6.098  11.646
 2988SOL     OW39457   2.213   0.507  11.710
 2988SOL    HW139458   2.161   0.424  11.693
 2988SOL    HW239459   2.290   0.512  11.646
 2989SOL     OW39460   2.213   2.369  11.710
 2989SOL    HW139461   2.161   2.286  11.693
 2989SOL    HW239462   2.290   2.374  11.646
 2990SOL     OW39463   2.213   4.231  11.710
 2990SOL    HW139464   2.161   4.148  11.693
 2990SOL    HW239465   2.290   4.236  11.646
 2991SOL     OW39466   2.213   6.093  11.710
 2991SOL    HW139467   2.161   6.010  11.693
 2991SOL    HW239468   2.290   6.098  11.646
 2992SOL     OW39469   4.075   0.507  11.710
 2992SOL    HW139470   4.023   0.424  11.693
 2992SOL    HW239471   4.152   0.512  11.646
 2993SOL     OW39472   4.075   2.369  11.710
 2993SOL    HW139473   4.023   2.286  11.693
 2993SOL    HW239474   4.152   2.374  11.646
 2994SOL     OW39475   4.075   4.231  11.710
 2994SOL    HW139476   4.023   4.148  11.693
 2994SOL    HW239477   4.152   4.236  11.646
 2995SOL     OW39478   4.075   6.093  11.710
 2995SOL    HW139479   4.023   6.010  11.693
 2995SOL    HW239480   4.152   6.098  11.646
 2996SOL     OW39481   5.937   0.507  11.710
 2996SOL    HW139482   5.885   0.424  11.693
 2996SOL    HW239483   6.014   0.512  11.646
 2997SOL     OW39484   5.937   2.369  11.710
 2997SOL    HW139485   5.885   2.286  11.693
 2997SOL    HW239486   6.014   2.374  11.646
 2998SOL     OW39487   5.937   4.231  11.710
 2998SOL    HW139488   5.885   4.148  11.693
 2998SOL    HW239489   6.014   4.236  11.646
 2999SOL     OW39490   5.937   6.093  11.710
 2999SOL    HW139491   5.885   6.010  11.693
 2999SOL    HW239492   6.014   6.098  11.646
 3000SOL     OW39493   1.871   1.516   1.137
 3000SOL    HW139494   1.885   1.543   1.042
 3000SOL    HW239495   1.954   1.538   1.190
 3001SOL     OW39496   1.871   3.378   1.137
 3001SOL    HW139497   1.885   3.405   1.042
 3001SOL    HW239498   1.954   3.400   1.190
 3002SOL     OW39499   1.871   5.240   1.137
 3002SOL    HW139500   1.885   5.267   1.042
 3002SOL    HW239501   1.954   5.262   1.190
 3003SOL     OW39502   3.733   1.516   1.137
 3003SOL    HW139503   3.747   1.543   1.042
 3003SOL    HW239504   3.816   1.538   1.190
 3004SOL     OW39505   3.733   3.378   1.137
 3004SOL    HW139506   3.747   3.405   1.042
 3004SOL    HW239507   3.816   3.400   1.190
 3005SOL     OW39508   3.733   5.240   1.137
 3005SOL    HW139509   3.747   5.267   1.042
 3005SOL    HW239510   3.816   5.262   1.190
 3006SOL     OW39511   5.595   1.516   1.137
 3006SOL    HW139512   5.609   1.543   1.042
 3006SOL    HW239513   5.678   1.538   1.190
 3007SOL     OW39514   5.595   3.378   1.137
 3007SOL    HW139515   5.609   3.405   1.042
 3007SOL    HW239516   5.678   3.400   1.190
 3008SOL     OW39517   5.595   5.240   1.137
 3008SOL    HW139518   5.609   5.267   1.042
 3008SOL    HW239519   5.678   5.262   1.190
 3009SOL     OW39520   0.237   0.273  11.700
 3009SOL    HW139521   0.272   0.256  11.792
 3009SOL    HW239522   0.149   0.228  11.688
 3010SOL     OW39523   0.237   2.135  11.700
 3010SOL    HW139524   0.272   2.118  11.792
 3010SOL    HW239525   0.149   2.090  11.688
 3011SOL     OW39526   0.237   3.997  11.700
 3011SOL    HW139527   0.272   3.980  11.792
 3011SOL    HW239528   0.149   3.952  11.688
 3012SOL     OW39529   0.237   5.859  11.700
 3012SOL    HW139530   0.272   5.842  11.792
 3012SOL    HW239531   0.149   5.814  11.688
 3013SOL     OW39532   2.099   0.273  11.700
 3013SOL    HW139533   2.134   0.256  11.792
 3013SOL    HW239534   2.011   0.228  11.688
 3014SOL     OW39535   2.099   2.135  11.700
 3014SOL    HW139536   2.134   2.118  11.792
 3014SOL    HW239537   2.011   2.090  11.688
 3015SOL     OW39538   2.099   3.997  11.700
 3015SOL    HW139539   2.134   3.980  11.792
 3015SOL    HW239540   2.011   3.952  11.688
 3016SOL     OW39541   2.099   5.859  11.700
 3016SOL    HW139542   2.134   5.842  11.792
 3016SOL    HW239543   2.011   5.814  11.688
 3017SOL     OW39544   3.961   0.273  11.700
 3017SOL    HW139545   3.996   0.256  11.792
 3017SOL    HW239546   3.873   0.228  11.688
 3018SOL     OW39547   3.961   2.135  11.700
 3018SOL    HW139548   3.996   2.118  11.792
 3018SOL    HW239549   3.873   2.090  11.688
 3019SOL     OW39550   3.961   3.997  11.700
 3019SOL    HW139551   3.996   3.980  11.792
 3019SOL    HW239552   3.873   3.952  11.688
 3020SOL     OW39553   3.961   5.859  11.700
 3020SOL    HW139554   3.996   5.842  11.792
 3020SOL    HW239555   3.873   5.814  11.688
 3021SOL     OW39556   5.823   0.273  11.700
 3021SOL    HW139557   5.858   0.256  11.792
 3021SOL    HW239558   5.735   0.228  11.688
 3022SOL     OW39559   5.823   2.135  11.700
 3022SOL    HW139560   5.858   2.118  11.792
 3022SOL    HW239561   5.735   2.090  11.688
 3023SOL     OW39562   5.823   3.997  11.700
 3023SOL    HW139563   5.858   3.980  11.792
 3023SOL    HW239564   5.735   3.952  11.688
 3024SOL     OW39565   5.823   5.859  11.700
 3024SOL    HW139566   5.858   5.842  11.792
 3024SOL    HW239567   5.735   5.814  11.688
 3025SOL     OW39568   1.199   1.790   1.148
 3025SOL    HW139569   1.223   1.850   1.072
 3025SOL    HW239570   1.206   1.695   1.118
 3026SOL     OW39571   1.199   3.652   1.148
 3026SOL    HW139572   1.223   3.712   1.072
 3026SOL    HW239573   1.206   3.557   1.118
 3027SOL     OW39574   1.199   5.514   1.148
 3027SOL    HW139575   1.223   5.574   1.072
 3027SOL    HW239576   1.206   5.419   1.118
 3028SOL     OW39577   3.061   1.790   1.148
 3028SOL    HW139578   3.085   1.850   1.072
 3028SOL    HW239579   3.068   1.695   1.118
 3029SOL     OW39580   3.061   3.652   1.148
 3029SOL    HW139581   3.085   3.712   1.072
 3029SOL    HW239582   3.068   3.557   1.118
 3030SOL     OW39583   3.061   5.514   1.148
 3030SOL    HW139584   3.085   5.574   1.072
 3030SOL    HW239585   3.068   5.419   1.118
 3031SOL     OW39586   4.923   1.790   1.148
 3031SOL    HW139587   4.947   1.850   1.072
 3031SOL    HW239588   4.930   1.695   1.118
 3032SOL     OW39589   4.923   3.652   1.148
 3032SOL    HW139590   4.947   3.712   1.072
 3032SOL    HW239591   4.930   3.557   1.118
 3033SOL     OW39592   4.923   5.514   1.148
 3033SOL    HW139593   4.947   5.574   1.072
 3033SOL    HW239594   4.930   5.419   1.118
 3034SOL     OW39595   1.478   0.588  11.696
 3034SOL    HW139596   1.448   0.493  11.703
 3034SOL    HW239597   1.551   0.604  11.762
 3035SOL     OW39598   1.478   2.450  11.696
 3035SOL    HW139599   1.448   2.355  11.703
 3035SOL    HW239600   1.551   2.466  11.762
 3036SOL     OW39601   1.478   4.312  11.696
 3036SOL    HW139602   1.448   4.217  11.703
 3036SOL    HW239603   1.551   4.328  11.762
 3037SOL     OW39604   1.478   6.174  11.696
 3037SOL    HW139605   1.448   6.079  11.703
 3037SOL    HW239606   1.551   6.190  11.762
 3038SOL     OW39607   3.340   0.588  11.696
 3038SOL    HW139608   3.310   0.493  11.703
 3038SOL    HW239609   3.413   0.604  11.762
 3039SOL     OW39610   3.340   2.450  11.696
 3039SOL    HW139611   3.310   2.355  11.703
 3039SOL    HW239612   3.413   2.466  11.762
 3040SOL     OW39613   3.340   4.312  11.696
 3040SOL    HW139614   3.310   4.217  11.703
 3040SOL    HW239615   3.413   4.328  11.762
 3041SOL     OW39616   3.340   6.174  11.696
 3041SOL    HW139617   3.310   6.079  11.703
 3041SOL    HW239618   3.413   6.190  11.762
 3042SOL     OW39619   5.202   0.588  11.696
 3042SOL    HW139620   5.172   0.493  11.703
 3042SOL    HW239621   5.275   0.604  11.762
 3043SOL     OW39622   5.202   2.450  11.696
 3043SOL    HW139623   5.172   2.355  11.703
 3043SOL    HW239624   5.275   2.466  11.762
 3044SOL     OW39625   5.202   4.312  11.696
 3044SOL    HW139626   5.172   4.217  11.703
 3044SOL    HW239627   5.275   4.328  11.762
 3045SOL     OW39628   5.202   6.174  11.696
 3045SOL    HW139629   5.172   6.079  11.703
 3045SOL    HW239630   5.275   6.190  11.762
 3046SOL     OW39631   0.684   1.389   1.156
 3046SOL    HW139632   0.606   1.339   1.194
 3046SOL    HW239633   0.681   1.484   1.187
 3047SOL     OW39634   0.684   3.251   1.156
 3047SOL    HW139635   0.606   3.201   1.194
 3047SOL    HW239636   0.681   3.346   1.187
 3048SOL     OW39637   0.684   5.113   1.156
 3048SOL    HW139638   0.606   5.063   1.194
 3048SOL    HW239639   0.681   5.208   1.187
 3049SOL     OW39640   2.546   1.389   1.156
 3049SOL    HW139641   2.468   1.339   1.194
 3049SOL    HW239642   2.543   1.484   1.187
 3050SOL     OW39643   2.546   3.251   1.156
 3050SOL    HW139644   2.468   3.201   1.194
 3050SOL    HW239645   2.543   3.346   1.187
 3051SOL     OW39646   2.546   5.113   1.156
 3051SOL    HW139647   2.468   5.063   1.194
 3051SOL    HW239648   2.543   5.208   1.187
 3052SOL     OW39649   4.408   1.389   1.156
 3052SOL    HW139650   4.330   1.339   1.194
 3052SOL    HW239651   4.405   1.484   1.187
 3053SOL     OW39652   4.408   3.251   1.156
 3053SOL    HW139653   4.330   3.201   1.194
 3053SOL    HW239654   4.405   3.346   1.187
 3054SOL     OW39655   4.408   5.113   1.156
 3054SOL    HW139656   4.330   5.063   1.194
 3054SOL    HW239657   4.405   5.208   1.187
 3055SOL     OW39658   6.270   1.389   1.156
 3055SOL    HW139659   6.192   1.339   1.194
 3055SOL    HW239660   6.267   1.484   1.187
 3056SOL     OW39661   6.270   3.251   1.156
 3056SOL    HW139662   6.192   3.201   1.194
 3056SOL    HW239663   6.267   3.346   1.187
 3057SOL     OW39664   6.270   5.113   1.156
 3057SOL    HW139665   6.192   5.063   1.194
 3057SOL    HW239666   6.267   5.208   1.187
 3058SOL     OW39667   1.604   1.627   1.157
 3058SOL    HW139668   1.631   1.661   1.067
 3058SOL    HW239669   1.683   1.589   1.203
 3059SOL     OW39670   1.604   3.489   1.157
 3059SOL    HW139671   1.631   3.523   1.067
 3059SOL    HW239672   1.683   3.451   1.203
 3060SOL     OW39673   1.604   5.351   1.157
 3060SOL    HW139674   1.631   5.385   1.067
 3060SOL    HW239675   1.683   5.313   1.203
 3061SOL     OW39676   3.466   1.627   1.157
 3061SOL    HW139677   3.493   1.661   1.067
 3061SOL    HW239678   3.545   1.589   1.203
 3062SOL     OW39679   3.466   3.489   1.157
 3062SOL    HW139680   3.493   3.523   1.067
 3062SOL    HW239681   3.545   3.451   1.203
 3063SOL     OW39682   3.466   5.351   1.157
 3063SOL    HW139683   3.493   5.385   1.067
 3063SOL    HW239684   3.545   5.313   1.203
 3064SOL     OW39685   5.328   1.627   1.157
 3064SOL    HW139686   5.355   1.661   1.067
 3064SOL    HW239687   5.407   1.589   1.203
 3065SOL     OW39688   5.328   3.489   1.157
 3065SOL    HW139689   5.355   3.523   1.067
 3065SOL    HW239690   5.407   3.451   1.203
 3066SOL     OW39691   5.328   5.351   1.157
 3066SOL    HW139692   5.355   5.385   1.067
 3066SOL    HW239693   5.407   5.313   1.203
 3067SOL     OW39694   1.462   1.218   1.165
 3067SOL    HW139695   1.453   1.208   1.264
 3067SOL    HW239696   1.558   1.211   1.139
 3068SOL     OW39697   1.462   3.080   1.165
 3068SOL    HW139698   1.453   3.070   1.264
 3068SOL    HW239699   1.558   3.073   1.139
 3069SOL     OW39700   1.462   4.942   1.165
 3069SOL    HW139701   1.453   4.932   1.264
 3069SOL    HW239702   1.558   4.935   1.139
 3070SOL     OW39703   3.324   1.218   1.165
 3070SOL    HW139704   3.315   1.208   1.264
 3070SOL    HW239705   3.420   1.211   1.139
 3071SOL     OW39706   3.324   3.080   1.165
 3071SOL    HW139707   3.315   3.070   1.264
 3071SOL    HW239708   3.420   3.073   1.139
 3072SOL     OW39709   3.324   4.942   1.165
 3072SOL    HW139710   3.315   4.932   1.264
 3072SOL    HW239711   3.420   4.935   1.139
 3073SOL     OW39712   5.186   1.218   1.165
 3073SOL    HW139713   5.177   1.208   1.264
 3073SOL    HW239714   5.282   1.211   1.139
 3074SOL     OW39715   5.186   3.080   1.165
 3074SOL    HW139716   5.177   3.070   1.264
 3074SOL    HW239717   5.282   3.073   1.139
 3075SOL     OW39718   5.186   4.942   1.165
 3075SOL    HW139719   5.177   4.932   1.264
 3075SOL    HW239720   5.282   4.935   1.139
 3076SOL     OW39721   1.026   0.234  11.675
 3076SOL    HW139722   1.018   0.198  11.582
 3076SOL    HW239723   1.024   0.158  11.740
 3077SOL     OW39724   1.026   2.096  11.675
 3077SOL    HW139725   1.018   2.060  11.582
 3077SOL    HW239726   1.024   2.020  11.740
 3078SOL     OW39727   1.026   3.958  11.675
 3078SOL    HW139728   1.018   3.922  11.582
 3078SOL    HW239729   1.024   3.882  11.740
 3079SOL     OW39730   1.026   5.820  11.675
 3079SOL    HW139731   1.018   5.784  11.582
 3079SOL    HW239732   1.024   5.744  11.740
 3080SOL     OW39733   2.888   0.234  11.675
 3080SOL    HW139734   2.880   0.198  11.582
 3080SOL    HW239735   2.886   0.158  11.740
 3081SOL     OW39736   2.888   2.096  11.675
 3081SOL    HW139737   2.880   2.060  11.582
 3081SOL    HW239738   2.886   2.020  11.740
 3082SOL     OW39739   2.888   3.958  11.675
 3082SOL    HW139740   2.880   3.922  11.582
 3082SOL    HW239741   2.886   3.882  11.740
 3083SOL     OW39742   2.888   5.820  11.675
 3083SOL    HW139743   2.880   5.784  11.582
 3083SOL    HW239744   2.886   5.744  11.740
 3084SOL     OW39745   4.750   0.234  11.675
 3084SOL    HW139746   4.742   0.198  11.582
 3084SOL    HW239747   4.748   0.158  11.740
 3085SOL     OW39748   4.750   2.096  11.675
 3085SOL    HW139749   4.742   2.060  11.582
 3085SOL    HW239750   4.748   2.020  11.740
 3086SOL     OW39751   4.750   3.958  11.675
 3086SOL    HW139752   4.742   3.922  11.582
 3086SOL    HW239753   4.748   3.882  11.740
 3087SOL     OW39754   4.750   5.820  11.675
 3087SOL    HW139755   4.742   5.784  11.582
 3087SOL    HW239756   4.748   5.744  11.740
 3088SOL     OW39757   1.789   0.340   1.174
 3088SOL    HW139758   1.772   0.371   1.080
 3088SOL    HW239759   1.705   0.303   1.212
 3089SOL     OW39760   1.789   2.202   1.174
 3089SOL    HW139761   1.772   2.233   1.080
 3089SOL    HW239762   1.705   2.165   1.212
 3090SOL     OW39763   1.789   4.064   1.174
 3090SOL    HW139764   1.772   4.095   1.080
 3090SOL    HW239765   1.705   4.027   1.212
 3091SOL     OW39766   1.789   5.926   1.174
 3091SOL    HW139767   1.772   5.957   1.080
 3091SOL    HW239768   1.705   5.889   1.212
 3092SOL     OW39769   3.651   0.340   1.174
 3092SOL    HW139770   3.634   0.371   1.080
 3092SOL    HW239771   3.567   0.303   1.212
 3093SOL     OW39772   3.651   2.202   1.174
 3093SOL    HW139773   3.634   2.233   1.080
 3093SOL    HW239774   3.567   2.165   1.212
 3094SOL     OW39775   3.651   4.064   1.174
 3094SOL    HW139776   3.634   4.095   1.080
 3094SOL    HW239777   3.567   4.027   1.212
 3095SOL     OW39778   3.651   5.926   1.174
 3095SOL    HW139779   3.634   5.957   1.080
 3095SOL    HW239780   3.567   5.889   1.212
 3096SOL     OW39781   5.513   0.340   1.174
 3096SOL    HW139782   5.496   0.371   1.080
 3096SOL    HW239783   5.429   0.303   1.212
 3097SOL     OW39784   5.513   2.202   1.174
 3097SOL    HW139785   5.496   2.233   1.080
 3097SOL    HW239786   5.429   2.165   1.212
 3098SOL     OW39787   5.513   4.064   1.174
 3098SOL    HW139788   5.496   4.095   1.080
 3098SOL    HW239789   5.429   4.027   1.212
 3099SOL     OW39790   5.513   5.926   1.174
 3099SOL    HW139791   5.496   5.957   1.080
 3099SOL    HW239792   5.429   5.889   1.212
 3100SOL     OW39793   1.035   0.764  11.670
 3100SOL    HW139794   1.050   0.785  11.766
 3100SOL    HW239795   1.005   0.669  11.661
 3101SOL     OW39796   1.035   2.626  11.670
 3101SOL    HW139797   1.050   2.647  11.766
 3101SOL    HW239798   1.005   2.531  11.661
 3102SOL     OW39799   1.035   4.488  11.670
 3102SOL    HW139800   1.050   4.509  11.766
 3102SOL    HW239801   1.005   4.393  11.661
 3103SOL     OW39802   2.897   0.764  11.670
 3103SOL    HW139803   2.912   0.785  11.766
 3103SOL    HW239804   2.867   0.669  11.661
 3104SOL     OW39805   2.897   2.626  11.670
 3104SOL    HW139806   2.912   2.647  11.766
 3104SOL    HW239807   2.867   2.531  11.661
 3105SOL     OW39808   2.897   4.488  11.670
 3105SOL    HW139809   2.912   4.509  11.766
 3105SOL    HW239810   2.867   4.393  11.661
 3106SOL     OW39811   4.759   0.764  11.670
 3106SOL    HW139812   4.774   0.785  11.766
 3106SOL    HW239813   4.729   0.669  11.661
 3107SOL     OW39814   4.759   2.626  11.670
 3107SOL    HW139815   4.774   2.647  11.766
 3107SOL    HW239816   4.729   2.531  11.661
 3108SOL     OW39817   4.759   4.488  11.670
 3108SOL    HW139818   4.774   4.509  11.766
 3108SOL    HW239819   4.729   4.393  11.661
 3109SOL     OW39820   1.853   0.173  11.667
 3109SOL    HW139821   1.892   0.088  11.631
 3109SOL    HW239822   1.755   0.175  11.648
 3110SOL     OW39823   1.853   2.035  11.667
 3110SOL    HW139824   1.892   1.950  11.631
 3110SOL    HW239825   1.755   2.037  11.648
 3111SOL     OW39826   1.853   3.897  11.667
 3111SOL    HW139827   1.892   3.812  11.631
 3111SOL    HW239828   1.755   3.899  11.648
 3112SOL     OW39829   1.853   5.759  11.667
 3112SOL    HW139830   1.892   5.674  11.631
 3112SOL    HW239831   1.755   5.761  11.648
 3113SOL     OW39832   3.715   0.173  11.667
 3113SOL    HW139833   3.754   0.088  11.631
 3113SOL    HW239834   3.617   0.175  11.648
 3114SOL     OW39835   3.715   2.035  11.667
 3114SOL    HW139836   3.754   1.950  11.631
 3114SOL    HW239837   3.617   2.037  11.648
 3115SOL     OW39838   3.715   3.897  11.667
 3115SOL    HW139839   3.754   3.812  11.631
 3115SOL    HW239840   3.617   3.899  11.648
 3116SOL     OW39841   3.715   5.759  11.667
 3116SOL    HW139842   3.754   5.674  11.631
 3116SOL    HW239843   3.617   5.761  11.648
 3117SOL     OW39844   5.577   0.173  11.667
 3117SOL    HW139845   5.616   0.088  11.631
 3117SOL    HW239846   5.479   0.175  11.648
 3118SOL     OW39847   5.577   2.035  11.667
 3118SOL    HW139848   5.616   1.950  11.631
 3118SOL    HW239849   5.479   2.037  11.648
 3119SOL     OW39850   5.577   3.897  11.667
 3119SOL    HW139851   5.616   3.812  11.631
 3119SOL    HW239852   5.479   3.899  11.648
 3120SOL     OW39853   5.577   5.759  11.667
 3120SOL    HW139854   5.616   5.674  11.631
 3120SOL    HW239855   5.479   5.761  11.648
 3121SOL     OW39856   1.505   1.765  11.663
 3121SOL    HW139857   1.538   1.829  11.594
 3121SOL    HW239858   1.571   1.759  11.738
 3122SOL     OW39859   1.505   3.627  11.663
 3122SOL    HW139860   1.538   3.691  11.594
 3122SOL    HW239861   1.571   3.621  11.738
 3123SOL     OW39862   1.505   5.489  11.663
 3123SOL    HW139863   1.538   5.553  11.594
 3123SOL    HW239864   1.571   5.483  11.738
 3124SOL     OW39865   3.367   1.765  11.663
 3124SOL    HW139866   3.400   1.829  11.594
 3124SOL    HW239867   3.433   1.759  11.738
 3125SOL     OW39868   3.367   3.627  11.663
 3125SOL    HW139869   3.400   3.691  11.594
 3125SOL    HW239870   3.433   3.621  11.738
 3126SOL     OW39871   3.367   5.489  11.663
 3126SOL    HW139872   3.400   5.553  11.594
 3126SOL    HW239873   3.433   5.483  11.738
 3127SOL     OW39874   5.229   1.765  11.663
 3127SOL    HW139875   5.262   1.829  11.594
 3127SOL    HW239876   5.295   1.759  11.738
 3128SOL     OW39877   5.229   3.627  11.663
 3128SOL    HW139878   5.262   3.691  11.594
 3128SOL    HW239879   5.295   3.621  11.738
 3129SOL     OW39880   5.229   5.489  11.663
 3129SOL    HW139881   5.262   5.553  11.594
 3129SOL    HW239882   5.295   5.483  11.738
 3130SOL     OW39883   1.478   1.415  11.657
 3130SOL    HW139884   1.419   1.421  11.737
 3130SOL    HW239885   1.463   1.327  11.611
 3131SOL     OW39886   0.673   1.788  11.657
 3131SOL    HW139887   0.627   1.876  11.644
 3131SOL    HW239888   0.772   1.800  11.650
 3132SOL     OW39889   1.478   3.277  11.657
 3132SOL    HW139890   1.419   3.283  11.737
 3132SOL    HW239891   1.463   3.189  11.611
 3133SOL     OW39892   0.673   3.650  11.657
 3133SOL    HW139893   0.627   3.738  11.644
 3133SOL    HW239894   0.772   3.662  11.650
 3134SOL     OW39895   1.478   5.139  11.657
 3134SOL    HW139896   1.419   5.145  11.737
 3134SOL    HW239897   1.463   5.051  11.611
 3135SOL     OW39898   0.673   5.512  11.657
 3135SOL    HW139899   0.627   5.600  11.644
 3135SOL    HW239900   0.772   5.524  11.650
 3136SOL     OW39901   3.340   1.415  11.657
 3136SOL    HW139902   3.281   1.421  11.737
 3136SOL    HW239903   3.325   1.327  11.611
 3137SOL     OW39904   2.535   1.788  11.657
 3137SOL    HW139905   2.489   1.876  11.644
 3137SOL    HW239906   2.634   1.800  11.650
 3138SOL     OW39907   3.340   3.277  11.657
 3138SOL    HW139908   3.281   3.283  11.737
 3138SOL    HW239909   3.325   3.189  11.611
 3139SOL     OW39910   2.535   3.650  11.657
 3139SOL    HW139911   2.489   3.738  11.644
 3139SOL    HW239912   2.634   3.662  11.650
 3140SOL     OW39913   3.340   5.139  11.657
 3140SOL    HW139914   3.281   5.145  11.737
 3140SOL    HW239915   3.325   5.051  11.611
 3141SOL     OW39916   2.535   5.512  11.657
 3141SOL    HW139917   2.489   5.600  11.644
 3141SOL    HW239918   2.634   5.524  11.650
 3142SOL     OW39919   5.202   1.415  11.657
 3142SOL    HW139920   5.143   1.421  11.737
 3142SOL    HW239921   5.187   1.327  11.611
 3143SOL     OW39922   4.397   1.788  11.657
 3143SOL    HW139923   4.351   1.876  11.644
 3143SOL    HW239924   4.496   1.800  11.650
 3144SOL     OW39925   5.202   3.277  11.657
 3144SOL    HW139926   5.143   3.283  11.737
 3144SOL    HW239927   5.187   3.189  11.611
 3145SOL     OW39928   4.397   3.650  11.657
 3145SOL    HW139929   4.351   3.738  11.644
 3145SOL    HW239930   4.496   3.662  11.650
 3146SOL     OW39931   5.202   5.139  11.657
 3146SOL    HW139932   5.143   5.145  11.737
 3146SOL    HW239933   5.187   5.051  11.611
 3147SOL     OW39934   4.397   5.512  11.657
 3147SOL    HW139935   4.351   5.600  11.644
 3147SOL    HW239936   4.496   5.524  11.650
 3148SOL     OW39937   6.259   1.788  11.657
 3148SOL    HW139938   6.213   1.876  11.644
 3148SOL    HW239939   6.358   1.800  11.650
 3149SOL     OW39940   6.259   3.650  11.657
 3149SOL    HW139941   6.213   3.738  11.644
 3149SOL    HW239942   6.358   3.662  11.650
 3150SOL     OW39943   6.259   5.512  11.657
 3150SOL    HW139944   6.213   5.600  11.644
 3150SOL    HW239945   6.358   5.524  11.650
 3151SOL     OW39946   1.381   0.948   1.192
 3151SOL    HW139947   1.420   1.037   1.212
 3151SOL    HW239948   1.391   0.928   1.095
 3152SOL     OW39949   1.381   2.810   1.192
 3152SOL    HW139950   1.420   2.899   1.212
 3152SOL    HW239951   1.391   2.790   1.095
 3153SOL     OW39952   1.381   4.672   1.192
 3153SOL    HW139953   1.420   4.761   1.212
 3153SOL    HW239954   1.391   4.652   1.095
 3154SOL     OW39955   3.243   0.948   1.192
 3154SOL    HW139956   3.282   1.037   1.212
 3154SOL    HW239957   3.253   0.928   1.095
 3155SOL     OW39958   3.243   2.810   1.192
 3155SOL    HW139959   3.282   2.899   1.212
 3155SOL    HW239960   3.253   2.790   1.095
 3156SOL     OW39961   3.243   4.672   1.192
 3156SOL    HW139962   3.282   4.761   1.212
 3156SOL    HW239963   3.253   4.652   1.095
 3157SOL     OW39964   5.105   0.948   1.192
 3157SOL    HW139965   5.144   1.037   1.212
 3157SOL    HW239966   5.115   0.928   1.095
 3158SOL     OW39967   5.105   2.810   1.192
 3158SOL    HW139968   5.144   2.899   1.212
 3158SOL    HW239969   5.115   2.790   1.095
 3159SOL     OW39970   5.105   4.672   1.192
 3159SOL    HW139971   5.144   4.761   1.212
 3159SOL    HW239972   5.115   4.652   1.095
 3160SOL     OW39973   0.331   0.808  11.653
 3160SOL    HW139974   0.424   0.844  11.658
 3160SOL    HW239975   0.325   0.723  11.705
 3161SOL     OW39976   0.331   2.670  11.653
 3161SOL    HW139977   0.424   2.706  11.658
 3161SOL    HW239978   0.325   2.585  11.705
 3162SOL     OW39979   0.331   4.532  11.653
 3162SOL    HW139980   0.424   4.568  11.658
 3162SOL    HW239981   0.325   4.447  11.705
 3163SOL     OW39982   0.331   6.394  11.653
 3163SOL    HW139983   0.424   6.430  11.658
 3163SOL    HW239984   0.325   6.309  11.705
 3164SOL     OW39985   2.193   0.808  11.653
 3164SOL    HW139986   2.286   0.844  11.658
 3164SOL    HW239987   2.187   0.723  11.705
 3165SOL     OW39988   2.193   2.670  11.653
 3165SOL    HW139989   2.286   2.706  11.658
 3165SOL    HW239990   2.187   2.585  11.705
 3166SOL     OW39991   2.193   4.532  11.653
 3166SOL    HW139992   2.286   4.568  11.658
 3166SOL    HW239993   2.187   4.447  11.705
 3167SOL     OW39994   2.193   6.394  11.653
 3167SOL    HW139995   2.286   6.430  11.658
 3167SOL    HW239996   2.187   6.309  11.705
 3168SOL     OW39997   4.055   0.808  11.653
 3168SOL    HW139998   4.148   0.844  11.658
 3168SOL    HW239999   4.049   0.723  11.705
 3169SOL     OW40000   4.055   2.670  11.653
 3169SOL    HW140001   4.148   2.706  11.658
 3169SOL    HW240002   4.049   2.585  11.705
 3170SOL     OW40003   4.055   4.532  11.653
 3170SOL    HW140004   4.148   4.568  11.658
 3170SOL    HW240005   4.049   4.447  11.705
 3171SOL     OW40006   4.055   6.394  11.653
 3171SOL    HW140007   4.148   6.430  11.658
 3171SOL    HW240008   4.049   6.309  11.705
 3172SOL     OW40009   5.917   0.808  11.653
 3172SOL    HW140010   6.010   0.844  11.658
 3172SOL    HW240011   5.911   0.723  11.705
 3173SOL     OW40012   5.917   2.670  11.653
 3173SOL    HW140013   6.010   2.706  11.658
 3173SOL    HW240014   5.911   2.585  11.705
 3174SOL     OW40015   5.917   4.532  11.653
 3174SOL    HW140016   6.010   4.568  11.658
 3174SOL    HW240017   5.911   4.447  11.705
 3175SOL     OW40018   5.917   6.394  11.653
 3175SOL    HW140019   6.010   6.430  11.658
 3175SOL    HW240020   5.911   6.309  11.705
 3176SOL     OW40021   1.293   0.343  11.648
 3176SOL    HW140022   1.207   0.293  11.635
 3176SOL    HW240023   1.355   0.289  11.704
 3177SOL     OW40024   1.293   2.205  11.648
 3177SOL    HW140025   1.207   2.155  11.635
 3177SOL    HW240026   1.355   2.151  11.704
 3178SOL     OW40027   1.293   4.067  11.648
 3178SOL    HW140028   1.207   4.017  11.635
 3178SOL    HW240029   1.355   4.013  11.704
 3179SOL     OW40030   1.293   5.929  11.648
 3179SOL    HW140031   1.207   5.879  11.635
 3179SOL    HW240032   1.355   5.875  11.704
 3180SOL     OW40033   3.155   0.343  11.648
 3180SOL    HW140034   3.069   0.293  11.635
 3180SOL    HW240035   3.217   0.289  11.704
 3181SOL     OW40036   3.155   2.205  11.648
 3181SOL    HW140037   3.069   2.155  11.635
 3181SOL    HW240038   3.217   2.151  11.704
 3182SOL     OW40039   3.155   4.067  11.648
 3182SOL    HW140040   3.069   4.017  11.635
 3182SOL    HW240041   3.217   4.013  11.704
 3183SOL     OW40042   3.155   5.929  11.648
 3183SOL    HW140043   3.069   5.879  11.635
 3183SOL    HW240044   3.217   5.875  11.704
 3184SOL     OW40045   5.017   0.343  11.648
 3184SOL    HW140046   4.931   0.293  11.635
 3184SOL    HW240047   5.079   0.289  11.704
 3185SOL     OW40048   5.017   2.205  11.648
 3185SOL    HW140049   4.931   2.155  11.635
 3185SOL    HW240050   5.079   2.151  11.704
 3186SOL     OW40051   5.017   4.067  11.648
 3186SOL    HW140052   4.931   4.017  11.635
 3186SOL    HW240053   5.079   4.013  11.704
 3187SOL     OW40054   5.017   5.929  11.648
 3187SOL    HW140055   4.931   5.879  11.635
 3187SOL    HW240056   5.079   5.875  11.704
 3188SOL     OW40057   1.599   0.777   1.202
 3188SOL    HW140058   1.507   0.815   1.197
 3188SOL    HW240059   1.659   0.824   1.137
 3189SOL     OW40060   1.599   2.639   1.202
 3189SOL    HW140061   1.507   2.677   1.197
 3189SOL    HW240062   1.659   2.686   1.137
 3190SOL     OW40063   1.599   4.501   1.202
 3190SOL    HW140064   1.507   4.539   1.197
 3190SOL    HW240065   1.659   4.548   1.137
 3191SOL     OW40066   1.599   6.363   1.202
 3191SOL    HW140067   1.507   6.401   1.197
 3191SOL    HW240068   1.659   6.410   1.137
 3192SOL     OW40069   3.461   0.777   1.202
 3192SOL    HW140070   3.369   0.815   1.197
 3192SOL    HW240071   3.521   0.824   1.137
 3193SOL     OW40072   3.461   2.639   1.202
 3193SOL    HW140073   3.369   2.677   1.197
 3193SOL    HW240074   3.521   2.686   1.137
 3194SOL     OW40075   3.461   4.501   1.202
 3194SOL    HW140076   3.369   4.539   1.197
 3194SOL    HW240077   3.521   4.548   1.137
 3195SOL     OW40078   3.461   6.363   1.202
 3195SOL    HW140079   3.369   6.401   1.197
 3195SOL    HW240080   3.521   6.410   1.137
 3196SOL     OW40081   5.323   0.777   1.202
 3196SOL    HW140082   5.231   0.815   1.197
 3196SOL    HW240083   5.383   0.824   1.137
 3197SOL     OW40084   5.323   2.639   1.202
 3197SOL    HW140085   5.231   2.677   1.197
 3197SOL    HW240086   5.383   2.686   1.137
 3198SOL     OW40087   5.323   4.501   1.202
 3198SOL    HW140088   5.231   4.539   1.197
 3198SOL    HW240089   5.383   4.548   1.137
 3199SOL     OW40090   5.323   6.363   1.202
 3199SOL    HW140091   5.231   6.401   1.197
 3199SOL    HW240092   5.383   6.410   1.137
 3200SOL     OW40093   1.406   0.467   1.206
 3200SOL    HW140094   1.386   0.510   1.294
 3200SOL    HW240095   1.484   0.405   1.215
 3201SOL     OW40096   1.406   2.329   1.206
 3201SOL    HW140097   1.386   2.372   1.294
 3201SOL    HW240098   1.484   2.267   1.215
 3202SOL     OW40099   1.406   4.191   1.206
 3202SOL    HW140100   1.386   4.234   1.294
 3202SOL    HW240101   1.484   4.129   1.215
 3203SOL     OW40102   1.406   6.053   1.206
 3203SOL    HW140103   1.386   6.096   1.294
 3203SOL    HW240104   1.484   5.991   1.215
 3204SOL     OW40105   3.268   0.467   1.206
 3204SOL    HW140106   3.248   0.510   1.294
 3204SOL    HW240107   3.346   0.405   1.215
 3205SOL     OW40108   3.268   2.329   1.206
 3205SOL    HW140109   3.248   2.372   1.294
 3205SOL    HW240110   3.346   2.267   1.215
 3206SOL     OW40111   3.268   4.191   1.206
 3206SOL    HW140112   3.248   4.234   1.294
 3206SOL    HW240113   3.346   4.129   1.215
 3207SOL     OW40114   3.268   6.053   1.206
 3207SOL    HW140115   3.248   6.096   1.294
 3207SOL    HW240116   3.346   5.991   1.215
 3208SOL     OW40117   5.130   0.467   1.206
 3208SOL    HW140118   5.110   0.510   1.294
 3208SOL    HW240119   5.208   0.405   1.215
 3209SOL     OW40120   5.130   2.329   1.206
 3209SOL    HW140121   5.110   2.372   1.294
 3209SOL    HW240122   5.208   2.267   1.215
 3210SOL     OW40123   5.130   4.191   1.206
 3210SOL    HW140124   5.110   4.234   1.294
 3210SOL    HW240125   5.208   4.129   1.215
 3211SOL     OW40126   5.130   6.053   1.206
 3211SOL    HW140127   5.110   6.096   1.294
 3211SOL    HW240128   5.208   5.991   1.215
 3212SOL     OW40129   1.150   0.378   1.210
 3212SOL    HW140130   1.105   0.441   1.274
 3212SOL    HW240131   1.243   0.409   1.193
 3213SOL     OW40132   1.150   2.240   1.210
 3213SOL    HW140133   1.105   2.303   1.274
 3213SOL    HW240134   1.243   2.271   1.193
 3214SOL     OW40135   1.150   4.102   1.210
 3214SOL    HW140136   1.105   4.165   1.274
 3214SOL    HW240137   1.243   4.133   1.193
 3215SOL     OW40138   1.150   5.964   1.210
 3215SOL    HW140139   1.105   6.027   1.274
 3215SOL    HW240140   1.243   5.995   1.193
 3216SOL     OW40141   3.012   0.378   1.210
 3216SOL    HW140142   2.967   0.441   1.274
 3216SOL    HW240143   3.105   0.409   1.193
 3217SOL     OW40144   3.012   2.240   1.210
 3217SOL    HW140145   2.967   2.303   1.274
 3217SOL    HW240146   3.105   2.271   1.193
 3218SOL     OW40147   3.012   4.102   1.210
 3218SOL    HW140148   2.967   4.165   1.274
 3218SOL    HW240149   3.105   4.133   1.193
 3219SOL     OW40150   3.012   5.964   1.210
 3219SOL    HW140151   2.967   6.027   1.274
 3219SOL    HW240152   3.105   5.995   1.193
 3220SOL     OW40153   4.874   0.378   1.210
 3220SOL    HW140154   4.829   0.441   1.274
 3220SOL    HW240155   4.967   0.409   1.193
 3221SOL     OW40156   4.874   2.240   1.210
 3221SOL    HW140157   4.829   2.303   1.274
 3221SOL    HW240158   4.967   2.271   1.193
 3222SOL     OW40159   4.874   4.102   1.210
 3222SOL    HW140160   4.829   4.165   1.274
 3222SOL    HW240161   4.967   4.133   1.193
 3223SOL     OW40162   4.874   5.964   1.210
 3223SOL    HW140163   4.829   6.027   1.274
 3223SOL    HW240164   4.967   5.995   1.193
 3224SOL     OW40165   0.100   1.799  11.631
 3224SOL    HW140166   0.058   1.713  11.604
 3224SOL    HW240167   0.194   1.802  11.597
 3225SOL     OW40168   0.100   3.661  11.631
 3225SOL    HW140169   0.058   3.575  11.604
 3225SOL    HW240170   0.194   3.664  11.597
 3226SOL     OW40171   0.100   5.523  11.631
 3226SOL    HW140172   0.058   5.437  11.604
 3226SOL    HW240173   0.194   5.526  11.597
 3227SOL     OW40174   1.962   1.799  11.631
 3227SOL    HW140175   1.920   1.713  11.604
 3227SOL    HW240176   2.056   1.802  11.597
 3228SOL     OW40177   1.962   3.661  11.631
 3228SOL    HW140178   1.920   3.575  11.604
 3228SOL    HW240179   2.056   3.664  11.597
 3229SOL     OW40180   1.962   5.523  11.631
 3229SOL    HW140181   1.920   5.437  11.604
 3229SOL    HW240182   2.056   5.526  11.597
 3230SOL     OW40183   3.824   1.799  11.631
 3230SOL    HW140184   3.782   1.713  11.604
 3230SOL    HW240185   3.918   1.802  11.597
 3231SOL     OW40186   3.824   3.661  11.631
 3231SOL    HW140187   3.782   3.575  11.604
 3231SOL    HW240188   3.918   3.664  11.597
 3232SOL     OW40189   3.824   5.523  11.631
 3232SOL    HW140190   3.782   5.437  11.604
 3232SOL    HW240191   3.918   5.526  11.597
 3233SOL     OW40192   5.686   1.799  11.631
 3233SOL    HW140193   5.644   1.713  11.604
 3233SOL    HW240194   5.780   1.802  11.597
 3234SOL     OW40195   5.686   3.661  11.631
 3234SOL    HW140196   5.644   3.575  11.604
 3234SOL    HW240197   5.780   3.664  11.597
 3235SOL     OW40198   5.686   5.523  11.631
 3235SOL    HW140199   5.644   5.437  11.604
 3235SOL    HW240200   5.780   5.526  11.597
 3236SOL     OW40201   0.815   1.400  11.628
 3236SOL    HW140202   0.905   1.414  11.586
 3236SOL    HW240203   0.744   1.402  11.557
 3237SOL     OW40204   0.815   3.262  11.628
 3237SOL    HW140205   0.905   3.276  11.586
 3237SOL    HW240206   0.744   3.264  11.557
 3238SOL     OW40207   0.815   5.124  11.628
 3238SOL    HW140208   0.905   5.138  11.586
 3238SOL    HW240209   0.744   5.126  11.557
 3239SOL     OW40210   2.677   1.400  11.628
 3239SOL    HW140211   2.767   1.414  11.586
 3239SOL    HW240212   2.606   1.402  11.557
 3240SOL     OW40213   2.677   3.262  11.628
 3240SOL    HW140214   2.767   3.276  11.586
 3240SOL    HW240215   2.606   3.264  11.557
 3241SOL     OW40216   2.677   5.124  11.628
 3241SOL    HW140217   2.767   5.138  11.586
 3241SOL    HW240218   2.606   5.126  11.557
 3242SOL     OW40219   4.539   1.400  11.628
 3242SOL    HW140220   4.629   1.414  11.586
 3242SOL    HW240221   4.468   1.402  11.557
 3243SOL     OW40222   4.539   3.262  11.628
 3243SOL    HW140223   4.629   3.276  11.586
 3243SOL    HW240224   4.468   3.264  11.557
 3244SOL     OW40225   4.539   5.124  11.628
 3244SOL    HW140226   4.629   5.138  11.586
 3244SOL    HW240227   4.468   5.126  11.557
 3245SOL     OW40228   6.401   1.400  11.628
 3245SOL    HW140229   0.041   1.414  11.586
 3245SOL    HW240230   6.330   1.402  11.557
 3246SOL     OW40231   6.401   3.262  11.628
 3246SOL    HW140232   0.041   3.276  11.586
 3246SOL    HW240233   6.330   3.264  11.557
 3247SOL     OW40234   6.401   5.124  11.628
 3247SOL    HW140235   0.041   5.138  11.586
 3247SOL    HW240236   6.330   5.126  11.557
 3248SOL     OW40237   1.139   1.339   1.222
 3248SOL    HW140238   1.186   1.339   1.310
 3248SOL    HW240239   1.091   1.252   1.211
 3249SOL     OW40240   1.139   3.201   1.222
 3249SOL    HW140241   1.186   3.201   1.310
 3249SOL    HW240242   1.091   3.114   1.211
 3250SOL     OW40243   1.139   5.063   1.222
 3250SOL    HW140244   1.186   5.063   1.310
 3250SOL    HW240245   1.091   4.976   1.211
 3251SOL     OW40246   3.001   1.339   1.222
 3251SOL    HW140247   3.048   1.339   1.310
 3251SOL    HW240248   2.953   1.252   1.211
 3252SOL     OW40249   3.001   3.201   1.222
 3252SOL    HW140250   3.048   3.201   1.310
 3252SOL    HW240251   2.953   3.114   1.211
 3253SOL     OW40252   3.001   5.063   1.222
 3253SOL    HW140253   3.048   5.063   1.310
 3253SOL    HW240254   2.953   4.976   1.211
 3254SOL     OW40255   4.863   1.339   1.222
 3254SOL    HW140256   4.910   1.339   1.310
 3254SOL    HW240257   4.815   1.252   1.211
 3255SOL     OW40258   4.863   3.201   1.222
 3255SOL    HW140259   4.910   3.201   1.310
 3255SOL    HW240260   4.815   3.114   1.211
 3256SOL     OW40261   4.863   5.063   1.222
 3256SOL    HW140262   4.910   5.063   1.310
 3256SOL    HW240263   4.815   4.976   1.211
 3257SOL     OW40264   0.516   1.566  11.614
 3257SOL    HW140265   0.582   1.640  11.623
 3257SOL    HW240266   0.560   1.487  11.572
 3258SOL     OW40267   0.516   3.428  11.614
 3258SOL    HW140268   0.582   3.502  11.623
 3258SOL    HW240269   0.560   3.349  11.572
 3259SOL     OW40270   0.516   5.290  11.614
 3259SOL    HW140271   0.582   5.364  11.623
 3259SOL    HW240272   0.560   5.211  11.572
 3260SOL     OW40273   2.378   1.566  11.614
 3260SOL    HW140274   2.444   1.640  11.623
 3260SOL    HW240275   2.422   1.487  11.572
 3261SOL     OW40276   2.378   3.428  11.614
 3261SOL    HW140277   2.444   3.502  11.623
 3261SOL    HW240278   2.422   3.349  11.572
 3262SOL     OW40279   2.378   5.290  11.614
 3262SOL    HW140280   2.444   5.364  11.623
 3262SOL    HW240281   2.422   5.211  11.572
 3263SOL     OW40282   4.240   1.566  11.614
 3263SOL    HW140283   4.306   1.640  11.623
 3263SOL    HW240284   4.284   1.487  11.572
 3264SOL     OW40285   4.240   3.428  11.614
 3264SOL    HW140286   4.306   3.502  11.623
 3264SOL    HW240287   4.284   3.349  11.572
 3265SOL     OW40288   4.240   5.290  11.614
 3265SOL    HW140289   4.306   5.364  11.623
 3265SOL    HW240290   4.284   5.211  11.572
 3266SOL     OW40291   6.102   1.566  11.614
 3266SOL    HW140292   6.168   1.640  11.623
 3266SOL    HW240293   6.146   1.487  11.572
 3267SOL     OW40294   6.102   3.428  11.614
 3267SOL    HW140295   6.168   3.502  11.623
 3267SOL    HW240296   6.146   3.349  11.572
 3268SOL     OW40297   6.102   5.290  11.614
 3268SOL    HW140298   6.168   5.364  11.623
 3268SOL    HW240299   6.146   5.211  11.572
 3269SOL     OW40300   0.992   1.571   1.232
 3269SOL    HW140301   0.972   1.615   1.144
 3269SOL    HW240302   1.031   1.480   1.216
 3270SOL     OW40303   0.992   3.433   1.232
 3270SOL    HW140304   0.972   3.477   1.144
 3270SOL    HW240305   1.031   3.342   1.216
 3271SOL     OW40306   0.992   5.295   1.232
 3271SOL    HW140307   0.972   5.339   1.144
 3271SOL    HW240308   1.031   5.204   1.216
 3272SOL     OW40309   2.854   1.571   1.232
 3272SOL    HW140310   2.834   1.615   1.144
 3272SOL    HW240311   2.893   1.480   1.216
 3273SOL     OW40312   2.854   3.433   1.232
 3273SOL    HW140313   2.834   3.477   1.144
 3273SOL    HW240314   2.893   3.342   1.216
 3274SOL     OW40315   2.854   5.295   1.232
 3274SOL    HW140316   2.834   5.339   1.144
 3274SOL    HW240317   2.893   5.204   1.216
 3275SOL     OW40318   4.716   1.571   1.232
 3275SOL    HW140319   4.696   1.615   1.144
 3275SOL    HW240320   4.755   1.480   1.216
 3276SOL     OW40321   4.716   3.433   1.232
 3276SOL    HW140322   4.696   3.477   1.144
 3276SOL    HW240323   4.755   3.342   1.216
 3277SOL     OW40324   4.716   5.295   1.232
 3277SOL    HW140325   4.696   5.339   1.144
 3277SOL    HW240326   4.755   5.204   1.216
 3278SOL     OW40327   0.952   1.696  11.608
 3278SOL    HW140328   1.032   1.639  11.629
 3278SOL    HW240329   0.903   1.656  11.531
 3279SOL     OW40330   0.952   3.558  11.608
 3279SOL    HW140331   1.032   3.501  11.629
 3279SOL    HW240332   0.903   3.518  11.531
 3280SOL     OW40333   0.952   5.420  11.608
 3280SOL    HW140334   1.032   5.363  11.629
 3280SOL    HW240335   0.903   5.380  11.531
 3281SOL     OW40336   2.814   1.696  11.608
 3281SOL    HW140337   2.894   1.639  11.629
 3281SOL    HW240338   2.765   1.656  11.531
 3282SOL     OW40339   2.814   3.558  11.608
 3282SOL    HW140340   2.894   3.501  11.629
 3282SOL    HW240341   2.765   3.518  11.531
 3283SOL     OW40342   2.814   5.420  11.608
 3283SOL    HW140343   2.894   5.363  11.629
 3283SOL    HW240344   2.765   5.380  11.531
 3284SOL     OW40345   4.676   1.696  11.608
 3284SOL    HW140346   4.756   1.639  11.629
 3284SOL    HW240347   4.627   1.656  11.531
 3285SOL     OW40348   4.676   3.558  11.608
 3285SOL    HW140349   4.756   3.501  11.629
 3285SOL    HW240350   4.627   3.518  11.531
 3286SOL     OW40351   4.676   5.420  11.608
 3286SOL    HW140352   4.756   5.363  11.629
 3286SOL    HW240353   4.627   5.380  11.531
 3287SOL     OW40354   0.728   0.563   1.240
 3287SOL    HW140355   0.747   0.628   1.314
 3287SOL    HW240356   0.788   0.483   1.249
 3288SOL     OW40357   0.728   2.425   1.240
 3288SOL    HW140358   0.747   2.490   1.314
 3288SOL    HW240359   0.788   2.345   1.249
 3289SOL     OW40360   0.728   4.287   1.240
 3289SOL    HW140361   0.747   4.352   1.314
 3289SOL    HW240362   0.788   4.207   1.249
 3290SOL     OW40363   0.728   6.149   1.240
 3290SOL    HW140364   0.747   6.214   1.314
 3290SOL    HW240365   0.788   6.069   1.249
 3291SOL     OW40366   2.590   0.563   1.240
 3291SOL    HW140367   2.609   0.628   1.314
 3291SOL    HW240368   2.650   0.483   1.249
 3292SOL     OW40369   2.590   2.425   1.240
 3292SOL    HW140370   2.609   2.490   1.314
 3292SOL    HW240371   2.650   2.345   1.249
 3293SOL     OW40372   2.590   4.287   1.240
 3293SOL    HW140373   2.609   4.352   1.314
 3293SOL    HW240374   2.650   4.207   1.249
 3294SOL     OW40375   2.590   6.149   1.240
 3294SOL    HW140376   2.609   6.214   1.314
 3294SOL    HW240377   2.650   6.069   1.249
 3295SOL     OW40378   4.452   0.563   1.240
 3295SOL    HW140379   4.471   0.628   1.314
 3295SOL    HW240380   4.512   0.483   1.249
 3296SOL     OW40381   4.452   2.425   1.240
 3296SOL    HW140382   4.471   2.490   1.314
 3296SOL    HW240383   4.512   2.345   1.249
 3297SOL     OW40384   4.452   4.287   1.240
 3297SOL    HW140385   4.471   4.352   1.314
 3297SOL    HW240386   4.512   4.207   1.249
 3298SOL     OW40387   4.452   6.149   1.240
 3298SOL    HW140388   4.471   6.214   1.314
 3298SOL    HW240389   4.512   6.069   1.249
 3299SOL     OW40390   6.314   0.563   1.240
 3299SOL    HW140391   6.333   0.628   1.314
 3299SOL    HW240392   6.374   0.483   1.249
 3300SOL     OW40393   6.314   2.425   1.240
 3300SOL    HW140394   6.333   2.490   1.314
 3300SOL    HW240395   6.374   2.345   1.249
 3301SOL     OW40396   6.314   4.287   1.240
 3301SOL    HW140397   6.333   4.352   1.314
 3301SOL    HW240398   6.374   4.207   1.249
 3302SOL     OW40399   6.314   6.149   1.240
 3302SOL    HW140400   6.333   6.214   1.314
 3302SOL    HW240401   6.374   6.069   1.249
 3303SOL     OW40402   0.934   0.501  11.603
 3303SOL    HW140403   0.909   0.492  11.507
 3303SOL    HW240404   0.982   0.419  11.634
 3304SOL     OW40405   0.934   2.363  11.603
 3304SOL    HW140406   0.909   2.354  11.507
 3304SOL    HW240407   0.982   2.281  11.634
 3305SOL     OW40408   0.934   4.225  11.603
 3305SOL    HW140409   0.909   4.216  11.507
 3305SOL    HW240410   0.982   4.143  11.634
 3306SOL     OW40411   0.934   6.087  11.603
 3306SOL    HW140412   0.909   6.078  11.507
 3306SOL    HW240413   0.982   6.005  11.634
 3307SOL     OW40414   2.796   0.501  11.603
 3307SOL    HW140415   2.771   0.492  11.507
 3307SOL    HW240416   2.844   0.419  11.634
 3308SOL     OW40417   2.796   2.363  11.603
 3308SOL    HW140418   2.771   2.354  11.507
 3308SOL    HW240419   2.844   2.281  11.634
 3309SOL     OW40420   2.796   4.225  11.603
 3309SOL    HW140421   2.771   4.216  11.507
 3309SOL    HW240422   2.844   4.143  11.634
 3310SOL     OW40423   2.796   6.087  11.603
 3310SOL    HW140424   2.771   6.078  11.507
 3310SOL    HW240425   2.844   6.005  11.634
 3311SOL     OW40426   4.658   0.501  11.603
 3311SOL    HW140427   4.633   0.492  11.507
 3311SOL    HW240428   4.706   0.419  11.634
 3312SOL     OW40429   4.658   2.363  11.603
 3312SOL    HW140430   4.633   2.354  11.507
 3312SOL    HW240431   4.706   2.281  11.634
 3313SOL     OW40432   4.658   4.225  11.603
 3313SOL    HW140433   4.633   4.216  11.507
 3313SOL    HW240434   4.706   4.143  11.634
 3314SOL     OW40435   4.658   6.087  11.603
 3314SOL    HW140436   4.633   6.078  11.507
 3314SOL    HW240437   4.706   6.005  11.634
 3315SOL     OW40438   0.070   0.501  11.603
 3315SOL    HW140439   0.045   0.492  11.507
 3315SOL    HW240440   0.118   0.419  11.634
 3316SOL     OW40441   0.070   2.363  11.603
 3316SOL    HW140442   0.045   2.354  11.507
 3316SOL    HW240443   0.118   2.281  11.634
 3317SOL     OW40444   0.070   4.225  11.603
 3317SOL    HW140445   0.045   4.216  11.507
 3317SOL    HW240446   0.118   4.143  11.634
 3318SOL     OW40447   0.070   6.087  11.603
 3318SOL    HW140448   0.045   6.078  11.507
 3318SOL    HW240449   0.118   6.005  11.634
 3319SOL     OW40450   0.700   1.660   1.248
 3319SOL    HW140451   0.644   1.741   1.257
 3319SOL    HW240452   0.752   1.664   1.162
 3320SOL     OW40453   0.700   3.522   1.248
 3320SOL    HW140454   0.644   3.603   1.257
 3320SOL    HW240455   0.752   3.526   1.162
 3321SOL     OW40456   0.700   5.384   1.248
 3321SOL    HW140457   0.644   5.465   1.257
 3321SOL    HW240458   0.752   5.388   1.162
 3322SOL     OW40459   2.562   1.660   1.248
 3322SOL    HW140460   2.506   1.741   1.257
 3322SOL    HW240461   2.614   1.664   1.162
 3323SOL     OW40462   2.562   3.522   1.248
 3323SOL    HW140463   2.506   3.603   1.257
 3323SOL    HW240464   2.614   3.526   1.162
 3324SOL     OW40465   2.562   5.384   1.248
 3324SOL    HW140466   2.506   5.465   1.257
 3324SOL    HW240467   2.614   5.388   1.162
 3325SOL     OW40468   4.424   1.660   1.248
 3325SOL    HW140469   4.368   1.741   1.257
 3325SOL    HW240470   4.476   1.664   1.162
 3326SOL     OW40471   4.424   3.522   1.248
 3326SOL    HW140472   4.368   3.603   1.257
 3326SOL    HW240473   4.476   3.526   1.162
 3327SOL     OW40474   4.424   5.384   1.248
 3327SOL    HW140475   4.368   5.465   1.257
 3327SOL    HW240476   4.476   5.388   1.162
 3328SOL     OW40477   6.286   1.660   1.248
 3328SOL    HW140478   6.230   1.741   1.257
 3328SOL    HW240479   6.338   1.664   1.162
 3329SOL     OW40480   6.286   3.522   1.248
 3329SOL    HW140481   6.230   3.603   1.257
 3329SOL    HW240482   6.338   3.526   1.162
 3330SOL     OW40483   6.286   5.384   1.248
 3330SOL    HW140484   6.230   5.465   1.257
 3330SOL    HW240485   6.338   5.388   1.162
 3331SOL     OW40486   0.992   1.114   1.251
 3331SOL    HW140487   0.893   1.120   1.261
 3331SOL    HW240488   1.015   1.034   1.195
 3332SOL     OW40489   0.992   2.976   1.251
 3332SOL    HW140490   0.893   2.982   1.261
 3332SOL    HW240491   1.015   2.896   1.195
 3333SOL     OW40492   0.992   4.838   1.251
 3333SOL    HW140493   0.893   4.844   1.261
 3333SOL    HW240494   1.015   4.758   1.195
 3334SOL     OW40495   2.854   1.114   1.251
 3334SOL    HW140496   2.755   1.120   1.261
 3334SOL    HW240497   2.877   1.034   1.195
 3335SOL     OW40498   2.854   2.976   1.251
 3335SOL    HW140499   2.755   2.982   1.261
 3335SOL    HW240500   2.877   2.896   1.195
 3336SOL     OW40501   2.854   4.838   1.251
 3336SOL    HW140502   2.755   4.844   1.261
 3336SOL    HW240503   2.877   4.758   1.195
 3337SOL     OW40504   4.716   1.114   1.251
 3337SOL    HW140505   4.617   1.120   1.261
 3337SOL    HW240506   4.739   1.034   1.195
 3338SOL     OW40507   4.716   2.976   1.251
 3338SOL    HW140508   4.617   2.982   1.261
 3338SOL    HW240509   4.739   2.896   1.195
 3339SOL     OW40510   4.716   4.838   1.251
 3339SOL    HW140511   4.617   4.844   1.261
 3339SOL    HW240512   4.739   4.758   1.195
 3340SOL     OW40513   0.201   0.518   1.254
 3340SOL    HW140514   0.260   0.478   1.184
 3340SOL    HW240515   0.143   0.589   1.213
 3341SOL     OW40516   0.201   2.380   1.254
 3341SOL    HW140517   0.260   2.340   1.184
 3341SOL    HW240518   0.143   2.451   1.213
 3342SOL     OW40519   0.201   4.242   1.254
 3342SOL    HW140520   0.260   4.202   1.184
 3342SOL    HW240521   0.143   4.313   1.213
 3343SOL     OW40522   0.201   6.104   1.254
 3343SOL    HW140523   0.260   6.064   1.184
 3343SOL    HW240524   0.143   6.175   1.213
 3344SOL     OW40525   2.063   0.518   1.254
 3344SOL    HW140526   2.122   0.478   1.184
 3344SOL    HW240527   2.005   0.589   1.213
 3345SOL     OW40528   2.063   2.380   1.254
 3345SOL    HW140529   2.122   2.340   1.184
 3345SOL    HW240530   2.005   2.451   1.213
 3346SOL     OW40531   2.063   4.242   1.254
 3346SOL    HW140532   2.122   4.202   1.184
 3346SOL    HW240533   2.005   4.313   1.213
 3347SOL     OW40534   2.063   6.104   1.254
 3347SOL    HW140535   2.122   6.064   1.184
 3347SOL    HW240536   2.005   6.175   1.213
 3348SOL     OW40537   3.925   0.518   1.254
 3348SOL    HW140538   3.984   0.478   1.184
 3348SOL    HW240539   3.867   0.589   1.213
 3349SOL     OW40540   3.925   4.242   1.254
 3349SOL    HW140541   3.984   4.202   1.184
 3349SOL    HW240542   3.867   4.313   1.213
 3350SOL     OW40543   3.925   6.104   1.254
 3350SOL    HW140544   3.984   6.064   1.184
 3350SOL    HW240545   3.867   6.175   1.213
 3351SOL     OW40546   5.787   0.518   1.254
 3351SOL    HW140547   5.846   0.478   1.184
 3351SOL    HW240548   5.729   0.589   1.213
 3352SOL     OW40549   5.787   2.380   1.254
 3352SOL    HW140550   5.846   2.340   1.184
 3352SOL    HW240551   5.729   2.451   1.213
 3353SOL     OW40552   5.787   4.242   1.254
 3353SOL    HW140553   5.846   4.202   1.184
 3353SOL    HW240554   5.729   4.313   1.213
 3354SOL     OW40555   5.787   6.104   1.254
 3354SOL    HW140556   5.846   6.064   1.184
 3354SOL    HW240557   5.729   6.175   1.213
 3355SOL     OW40558   0.252   1.089  11.590
 3355SOL    HW140559   0.266   1.005  11.642
 3355SOL    HW240560   0.197   1.153  11.645
 3356SOL     OW40561   0.252   2.951  11.590
 3356SOL    HW140562   0.266   2.867  11.642
 3356SOL    HW240563   0.197   3.015  11.645
 3357SOL     OW40564   0.252   4.813  11.590
 3357SOL    HW140565   0.266   4.729  11.642
 3357SOL    HW240566   0.197   4.877  11.645
 3358SOL     OW40567   2.114   1.089  11.590
 3358SOL    HW140568   2.128   1.005  11.642
 3358SOL    HW240569   2.059   1.153  11.645
 3359SOL     OW40570   2.114   2.951  11.590
 3359SOL    HW140571   2.128   2.867  11.642
 3359SOL    HW240572   2.059   3.015  11.645
 3360SOL     OW40573   2.114   4.813  11.590
 3360SOL    HW140574   2.128   4.729  11.642
 3360SOL    HW240575   2.059   4.877  11.645
 3361SOL     OW40576   3.976   1.089  11.590
 3361SOL    HW140577   3.990   1.005  11.642
 3361SOL    HW240578   3.921   1.153  11.645
 3362SOL     OW40579   3.976   2.951  11.590
 3362SOL    HW140580   3.990   2.867  11.642
 3362SOL    HW240581   3.921   3.015  11.645
 3363SOL     OW40582   3.976   4.813  11.590
 3363SOL    HW140583   3.990   4.729  11.642
 3363SOL    HW240584   3.921   4.877  11.645
 3364SOL     OW40585   5.838   1.089  11.590
 3364SOL    HW140586   5.852   1.005  11.642
 3364SOL    HW240587   5.783   1.153  11.645
 3365SOL     OW40588   5.838   2.951  11.590
 3365SOL    HW140589   5.852   2.867  11.642
 3365SOL    HW240590   5.783   3.015  11.645
 3366SOL     OW40591   5.838   4.813  11.590
 3366SOL    HW140592   5.852   4.729  11.642
 3366SOL    HW240593   5.783   4.877  11.645
 3367SOL     OW40594   0.562   0.194  11.589
 3367SOL    HW140595   0.557   0.189  11.689
 3367SOL    HW240596   0.564   0.290  11.560
 3368SOL     OW40597   0.562   2.056  11.589
 3368SOL    HW140598   0.557   2.051  11.689
 3368SOL    HW240599   0.564   2.152  11.560
 3369SOL     OW40600   0.562   3.918  11.589
 3369SOL    HW140601   0.557   3.913  11.689
 3369SOL    HW240602   0.564   4.014  11.560
 3370SOL     OW40603   0.562   5.780  11.589
 3370SOL    HW140604   0.557   5.775  11.689
 3370SOL    HW240605   0.564   5.876  11.560
 3371SOL     OW40606   2.424   0.194  11.589
 3371SOL    HW140607   2.419   0.189  11.689
 3371SOL    HW240608   2.426   0.290  11.560
 3372SOL     OW40609   2.424   2.056  11.589
 3372SOL    HW140610   2.419   2.051  11.689
 3372SOL    HW240611   2.426   2.152  11.560
 3373SOL     OW40612   2.424   3.918  11.589
 3373SOL    HW140613   2.419   3.913  11.689
 3373SOL    HW240614   2.426   4.014  11.560
 3374SOL     OW40615   2.424   5.780  11.589
 3374SOL    HW140616   2.419   5.775  11.689
 3374SOL    HW240617   2.426   5.876  11.560
 3375SOL     OW40618   4.286   0.194  11.589
 3375SOL    HW140619   4.281   0.189  11.689
 3375SOL    HW240620   4.288   0.290  11.560
 3376SOL     OW40621   4.286   2.056  11.589
 3376SOL    HW140622   4.281   2.051  11.689
 3376SOL    HW240623   4.288   2.152  11.560
 3377SOL     OW40624   4.286   3.918  11.589
 3377SOL    HW140625   4.281   3.913  11.689
 3377SOL    HW240626   4.288   4.014  11.560
 3378SOL     OW40627   4.286   5.780  11.589
 3378SOL    HW140628   4.281   5.775  11.689
 3378SOL    HW240629   4.288   5.876  11.560
 3379SOL     OW40630   6.148   0.194  11.589
 3379SOL    HW140631   6.143   0.189  11.689
 3379SOL    HW240632   6.150   0.290  11.560
 3380SOL     OW40633   6.148   2.056  11.589
 3380SOL    HW140634   6.143   2.051  11.689
 3380SOL    HW240635   6.150   2.152  11.560
 3381SOL     OW40636   6.148   3.918  11.589
 3381SOL    HW140637   6.143   3.913  11.689
 3381SOL    HW240638   6.150   4.014  11.560
 3382SOL     OW40639   6.148   5.780  11.589
 3382SOL    HW140640   6.143   5.775  11.689
 3382SOL    HW240641   6.150   5.876  11.560
 3383SOL     OW40642   0.117   1.011   1.258
 3383SOL    HW140643   0.040   0.978   1.312
 3383SOL    HW240644   0.202   0.981   1.300
 3384SOL     OW40645   0.117   2.873   1.258
 3384SOL    HW140646   0.040   2.840   1.312
 3384SOL    HW240647   0.202   2.843   1.300
 3385SOL     OW40648   0.117   4.735   1.258
 3385SOL    HW140649   0.040   4.702   1.312
 3385SOL    HW240650   0.202   4.705   1.300
 3386SOL     OW40651   0.117   0.147   1.258
 3386SOL    HW140652   0.040   0.114   1.312
 3386SOL    HW240653   0.202   0.117   1.300
 3387SOL     OW40654   1.979   1.011   1.258
 3387SOL    HW140655   1.902   0.978   1.312
 3387SOL    HW240656   2.064   0.981   1.300
 3388SOL     OW40657   1.979   2.873   1.258
 3388SOL    HW140658   1.902   2.840   1.312
 3388SOL    HW240659   2.064   2.843   1.300
 3389SOL     OW40660   1.979   4.735   1.258
 3389SOL    HW140661   1.902   4.702   1.312
 3389SOL    HW240662   2.064   4.705   1.300
 3390SOL     OW40663   1.979   0.147   1.258
 3390SOL    HW140664   1.902   0.114   1.312
 3390SOL    HW240665   2.064   0.117   1.300
 3391SOL     OW40666   3.841   1.011   1.258
 3391SOL    HW140667   3.764   0.978   1.312
 3391SOL    HW240668   3.926   0.981   1.300
 3392SOL     OW40669   3.841   2.873   1.258
 3392SOL    HW140670   3.764   2.840   1.312
 3392SOL    HW240671   3.926   2.843   1.300
 3393SOL     OW40672   3.841   4.735   1.258
 3393SOL    HW140673   3.764   4.702   1.312
 3393SOL    HW240674   3.926   4.705   1.300
 3394SOL     OW40675   3.841   0.147   1.258
 3394SOL    HW140676   3.764   0.114   1.312
 3394SOL    HW240677   3.926   0.117   1.300
 3395SOL     OW40678   5.703   1.011   1.258
 3395SOL    HW140679   5.626   0.978   1.312
 3395SOL    HW240680   5.788   0.981   1.300
 3396SOL     OW40681   5.703   2.873   1.258
 3396SOL    HW140682   5.626   2.840   1.312
 3396SOL    HW240683   5.788   2.843   1.300
 3397SOL     OW40684   5.703   4.735   1.258
 3397SOL    HW140685   5.626   4.702   1.312
 3397SOL    HW240686   5.788   4.705   1.300
 3398SOL     OW40687   5.703   0.147   1.258
 3398SOL    HW140688   5.626   0.114   1.312
 3398SOL    HW240689   5.788   0.117   1.300
 3399SOL     OW40690   0.473   1.264   1.259
 3399SOL    HW140691   0.423   1.265   1.173
 3399SOL    HW240692   0.410   1.246   1.335
 3400SOL     OW40693   0.473   3.126   1.259
 3400SOL    HW140694   0.423   3.127   1.173
 3400SOL    HW240695   0.410   3.108   1.335
 3401SOL     OW40696   2.335   1.264   1.259
 3401SOL    HW140697   2.285   1.265   1.173
 3401SOL    HW240698   2.272   1.246   1.335
 3402SOL     OW40699   2.335   3.126   1.259
 3402SOL    HW140700   2.285   3.127   1.173
 3402SOL    HW240701   2.272   3.108   1.335
 3403SOL     OW40702   2.335   4.988   1.259
 3403SOL    HW140703   2.285   4.989   1.173
 3403SOL    HW240704   2.272   4.970   1.335
 3404SOL     OW40705   4.197   1.264   1.259
 3404SOL    HW140706   4.147   1.265   1.173
 3404SOL    HW240707   4.134   1.246   1.335
 3405SOL     OW40708   4.197   3.126   1.259
 3405SOL    HW140709   4.147   3.127   1.173
 3405SOL    HW240710   4.134   3.108   1.335
 3406SOL     OW40711   4.197   4.988   1.259
 3406SOL    HW140712   4.147   4.989   1.173
 3406SOL    HW240713   4.134   4.970   1.335
 3407SOL     OW40714   6.059   1.264   1.259
 3407SOL    HW140715   6.009   1.265   1.173
 3407SOL    HW240716   5.996   1.246   1.335
 3408SOL     OW40717   6.059   3.126   1.259
 3408SOL    HW140718   6.009   3.127   1.173
 3408SOL    HW240719   5.996   3.108   1.335
 3409SOL     OW40720   6.059   4.988   1.259
 3409SOL    HW140721   6.009   4.989   1.173
 3409SOL    HW240722   5.996   4.970   1.335
 3410SOL     OW40723   1.605   0.219  11.586
 3410SOL    HW140724   1.521   0.218  11.640
 3410SOL    HW240725   1.607   0.302  11.530
 3411SOL     OW40726   1.605   2.081  11.586
 3411SOL    HW140727   1.521   2.080  11.640
 3411SOL    HW240728   1.607   2.164  11.530
 3412SOL     OW40729   1.605   3.943  11.586
 3412SOL    HW140730   1.521   3.942  11.640
 3412SOL    HW240731   1.607   4.026  11.530
 3413SOL     OW40732   1.605   5.805  11.586
 3413SOL    HW140733   1.521   5.804  11.640
 3413SOL    HW240734   1.607   5.888  11.530
 3414SOL     OW40735   3.467   0.219  11.586
 3414SOL    HW140736   3.383   0.218  11.640
 3414SOL    HW240737   3.469   0.302  11.530
 3415SOL     OW40738   3.467   2.081  11.586
 3415SOL    HW140739   3.383   2.080  11.640
 3415SOL    HW240740   3.469   2.164  11.530
 3416SOL     OW40741   3.467   3.943  11.586
 3416SOL    HW140742   3.383   3.942  11.640
 3416SOL    HW240743   3.469   4.026  11.530
 3417SOL     OW40744   3.467   5.805  11.586
 3417SOL    HW140745   3.383   5.804  11.640
 3417SOL    HW240746   3.469   5.888  11.530
 3418SOL     OW40747   5.329   0.219  11.586
 3418SOL    HW140748   5.245   0.218  11.640
 3418SOL    HW240749   5.331   0.302  11.530
 3419SOL     OW40750   5.329   2.081  11.586
 3419SOL    HW140751   5.245   2.080  11.640
 3419SOL    HW240752   5.331   2.164  11.530
 3420SOL     OW40753   5.329   3.943  11.586
 3420SOL    HW140754   5.245   3.942  11.640
 3420SOL    HW240755   5.331   4.026  11.530
 3421SOL     OW40756   5.329   5.805  11.586
 3421SOL    HW140757   5.245   5.804  11.640
 3421SOL    HW240758   5.331   5.888  11.530
 3422SOL     OW40759   1.559   0.220   1.261
 3422SOL    HW140760   1.554   0.257   1.353
 3422SOL    HW240761   1.487   0.151   1.249
 3423SOL     OW40762   1.559   2.082   1.261
 3423SOL    HW140763   1.554   2.119   1.353
 3423SOL    HW240764   1.487   2.013   1.249
 3424SOL     OW40765   1.559   3.944   1.261
 3424SOL    HW140766   1.554   3.981   1.353
 3424SOL    HW240767   1.487   3.875   1.249
 3425SOL     OW40768   1.559   5.806   1.261
 3425SOL    HW140769   1.554   5.843   1.353
 3425SOL    HW240770   1.487   5.737   1.249
 3426SOL     OW40771   3.421   0.220   1.261
 3426SOL    HW140772   3.416   0.257   1.353
 3426SOL    HW240773   3.349   0.151   1.249
 3427SOL     OW40774   3.421   2.082   1.261
 3427SOL    HW140775   3.416   2.119   1.353
 3427SOL    HW240776   3.349   2.013   1.249
 3428SOL     OW40777   3.421   3.944   1.261
 3428SOL    HW140778   3.416   3.981   1.353
 3428SOL    HW240779   3.349   3.875   1.249
 3429SOL     OW40780   3.421   5.806   1.261
 3429SOL    HW140781   3.416   5.843   1.353
 3429SOL    HW240782   3.349   5.737   1.249
 3430SOL     OW40783   5.283   0.220   1.261
 3430SOL    HW140784   5.278   0.257   1.353
 3430SOL    HW240785   5.211   0.151   1.249
 3431SOL     OW40786   5.283   2.082   1.261
 3431SOL    HW140787   5.278   2.119   1.353
 3431SOL    HW240788   5.211   2.013   1.249
 3432SOL     OW40789   5.283   3.944   1.261
 3432SOL    HW140790   5.278   3.981   1.353
 3432SOL    HW240791   5.211   3.875   1.249
 3433SOL     OW40792   5.283   5.806   1.261
 3433SOL    HW140793   5.278   5.843   1.353
 3433SOL    HW240794   5.211   5.737   1.249
 3434SOL     OW40795   1.807   1.064  11.577
 3434SOL    HW140796   1.745   1.049  11.501
 3434SOL    HW240797   1.755   1.075  11.662
 3435SOL     OW40798   1.807   2.926  11.577
 3435SOL    HW140799   1.745   2.911  11.501
 3435SOL    HW240800   1.755   2.937  11.662
 3436SOL     OW40801   1.807   4.788  11.577
 3436SOL    HW140802   1.745   4.773  11.501
 3436SOL    HW240803   1.755   4.799  11.662
 3437SOL     OW40804   3.669   1.064  11.577
 3437SOL    HW140805   3.607   1.049  11.501
 3437SOL    HW240806   3.617   1.075  11.662
 3438SOL     OW40807   3.669   2.926  11.577
 3438SOL    HW140808   3.607   2.911  11.501
 3438SOL    HW240809   3.617   2.937  11.662
 3439SOL     OW40810   3.669   4.788  11.577
 3439SOL    HW140811   3.607   4.773  11.501
 3439SOL    HW240812   3.617   4.799  11.662
 3440SOL     OW40813   5.531   1.064  11.577
 3440SOL    HW140814   5.469   1.049  11.501
 3440SOL    HW240815   5.479   1.075  11.662
 3441SOL     OW40816   5.531   2.926  11.577
 3441SOL    HW140817   5.469   2.911  11.501
 3441SOL    HW240818   5.479   2.937  11.662
 3442SOL     OW40819   5.531   4.788  11.577
 3442SOL    HW140820   5.469   4.773  11.501
 3442SOL    HW240821   5.479   4.799  11.662
 3443SOL     OW40822   0.516   0.048   1.272
 3443SOL    HW140823   0.474   6.441   1.202
 3443SOL    HW240824   0.450   0.117   1.304
 3444SOL     OW40825   0.516   1.910   1.272
 3444SOL    HW140826   0.474   1.853   1.202
 3444SOL    HW240827   0.450   1.979   1.304
 3445SOL     OW40828   0.516   3.772   1.272
 3445SOL    HW140829   0.474   3.715   1.202
 3445SOL    HW240830   0.450   3.841   1.304
 3446SOL     OW40831   0.516   5.634   1.272
 3446SOL    HW140832   0.474   5.577   1.202
 3446SOL    HW240833   0.450   5.703   1.304
 3447SOL     OW40834   2.378   0.048   1.272
 3447SOL    HW140835   2.336   6.441   1.202
 3447SOL    HW240836   2.312   0.117   1.304
 3448SOL     OW40837   2.378   1.910   1.272
 3448SOL    HW140838   2.336   1.853   1.202
 3448SOL    HW240839   2.312   1.979   1.304
 3449SOL     OW40840   2.378   3.772   1.272
 3449SOL    HW140841   2.336   3.715   1.202
 3449SOL    HW240842   2.312   3.841   1.304
 3450SOL     OW40843   2.378   5.634   1.272
 3450SOL    HW140844   2.336   5.577   1.202
 3450SOL    HW240845   2.312   5.703   1.304
 3451SOL     OW40846   4.240   0.048   1.272
 3451SOL    HW140847   4.198   6.441   1.202
 3451SOL    HW240848   4.174   0.117   1.304
 3452SOL     OW40849   4.240   1.910   1.272
 3452SOL    HW140850   4.198   1.853   1.202
 3452SOL    HW240851   4.174   1.979   1.304
 3453SOL     OW40852   4.240   3.772   1.272
 3453SOL    HW140853   4.198   3.715   1.202
 3453SOL    HW240854   4.174   3.841   1.304
 3454SOL     OW40855   4.240   5.634   1.272
 3454SOL    HW140856   4.198   5.577   1.202
 3454SOL    HW240857   4.174   5.703   1.304
 3455SOL     OW40858   6.102   0.048   1.272
 3455SOL    HW140859   6.060   6.441   1.202
 3455SOL    HW240860   6.036   0.117   1.304
 3456SOL     OW40861   6.102   1.910   1.272
 3456SOL    HW140862   6.060   1.853   1.202
 3456SOL    HW240863   6.036   1.979   1.304
 3457SOL     OW40864   6.102   3.772   1.272
 3457SOL    HW140865   6.060   3.715   1.202
 3457SOL    HW240866   6.036   3.841   1.304
 3458SOL     OW40867   6.102   5.634   1.272
 3458SOL    HW140868   6.060   5.577   1.202
 3458SOL    HW240869   6.036   5.703   1.304
 3459SOL     OW40870   1.441   1.171  11.571
 3459SOL    HW140871   1.386   1.087  11.564
 3459SOL    HW240872   1.467   1.200  11.479
 3460SOL     OW40873   1.441   3.033  11.571
 3460SOL    HW140874   1.386   2.949  11.564
 3460SOL    HW240875   1.467   3.062  11.479
 3461SOL     OW40876   1.441   4.895  11.571
 3461SOL    HW140877   1.386   4.811  11.564
 3461SOL    HW240878   1.467   4.924  11.479
 3462SOL     OW40879   3.303   1.171  11.571
 3462SOL    HW140880   3.248   1.087  11.564
 3462SOL    HW240881   3.329   1.200  11.479
 3463SOL     OW40882   3.303   3.033  11.571
 3463SOL    HW140883   3.248   2.949  11.564
 3463SOL    HW240884   3.329   3.062  11.479
 3464SOL     OW40885   3.303   4.895  11.571
 3464SOL    HW140886   3.248   4.811  11.564
 3464SOL    HW240887   3.329   4.924  11.479
 3465SOL     OW40888   5.165   1.171  11.571
 3465SOL    HW140889   5.110   1.087  11.564
 3465SOL    HW240890   5.191   1.200  11.479
 3466SOL     OW40891   5.165   3.033  11.571
 3466SOL    HW140892   5.110   2.949  11.564
 3466SOL    HW240893   5.191   3.062  11.479
 3467SOL     OW40894   5.165   4.895  11.571
 3467SOL    HW140895   5.110   4.811  11.564
 3467SOL    HW240896   5.191   4.924  11.479
 3468SOL     OW40897   0.264   1.562   1.276
 3468SOL    HW140898   0.234   1.619   1.352
 3468SOL    HW240899   0.257   1.465   1.302
 3469SOL     OW40900   0.264   3.424   1.276
 3469SOL    HW140901   0.234   3.481   1.352
 3469SOL    HW240902   0.257   3.327   1.302
 3470SOL     OW40903   0.264   5.286   1.276
 3470SOL    HW140904   0.234   5.343   1.352
 3470SOL    HW240905   0.257   5.189   1.302
 3471SOL     OW40906   2.126   1.562   1.276
 3471SOL    HW140907   2.096   1.619   1.352
 3471SOL    HW240908   2.119   1.465   1.302
 3472SOL     OW40909   2.126   3.424   1.276
 3472SOL    HW140910   2.096   3.481   1.352
 3472SOL    HW240911   2.119   3.327   1.302
 3473SOL     OW40912   2.126   5.286   1.276
 3473SOL    HW140913   2.096   5.343   1.352
 3473SOL    HW240914   2.119   5.189   1.302
 3474SOL     OW40915   3.988   1.562   1.276
 3474SOL    HW140916   3.958   1.619   1.352
 3474SOL    HW240917   3.981   1.465   1.302
 3475SOL     OW40918   3.988   3.424   1.276
 3475SOL    HW140919   3.958   3.481   1.352
 3475SOL    HW240920   3.981   3.327   1.302
 3476SOL     OW40921   3.988   5.286   1.276
 3476SOL    HW140922   3.958   5.343   1.352
 3476SOL    HW240923   3.981   5.189   1.302
 3477SOL     OW40924   5.850   1.562   1.276
 3477SOL    HW140925   5.820   1.619   1.352
 3477SOL    HW240926   5.843   1.465   1.302
 3478SOL     OW40927   5.850   3.424   1.276
 3478SOL    HW140928   5.820   3.481   1.352
 3478SOL    HW240929   5.843   3.327   1.302
 3479SOL     OW40930   5.850   5.286   1.276
 3479SOL    HW140931   5.820   5.343   1.352
 3479SOL    HW240932   5.843   5.189   1.302
 3480SOL     OW40933   0.578   0.535  11.569
 3480SOL    HW140934   0.590   0.601  11.495
 3480SOL    HW240935   0.624   0.569  11.652
 3481SOL     OW40936   0.578   2.397  11.569
 3481SOL    HW140937   0.590   2.463  11.495
 3481SOL    HW240938   0.624   2.431  11.652
 3482SOL     OW40939   0.578   4.259  11.569
 3482SOL    HW140940   0.590   4.325  11.495
 3482SOL    HW240941   0.624   4.293  11.652
 3483SOL     OW40942   0.578   6.121  11.569
 3483SOL    HW140943   0.590   6.187  11.495
 3483SOL    HW240944   0.624   6.155  11.652
 3484SOL     OW40945   2.440   0.535  11.569
 3484SOL    HW140946   2.452   0.601  11.495
 3484SOL    HW240947   2.486   0.569  11.652
 3485SOL     OW40948   2.440   2.397  11.569
 3485SOL    HW140949   2.452   2.463  11.495
 3485SOL    HW240950   2.486   2.431  11.652
 3486SOL     OW40951   2.440   4.259  11.569
 3486SOL    HW140952   2.452   4.325  11.495
 3486SOL    HW240953   2.486   4.293  11.652
 3487SOL     OW40954   2.440   6.121  11.569
 3487SOL    HW140955   2.452   6.187  11.495
 3487SOL    HW240956   2.486   6.155  11.652
 3488SOL     OW40957   4.302   0.535  11.569
 3488SOL    HW140958   4.314   0.601  11.495
 3488SOL    HW240959   4.348   0.569  11.652
 3489SOL     OW40960   4.302   2.397  11.569
 3489SOL    HW140961   4.314   2.463  11.495
 3489SOL    HW240962   4.348   2.431  11.652
 3490SOL     OW40963   4.302   4.259  11.569
 3490SOL    HW140964   4.314   4.325  11.495
 3490SOL    HW240965   4.348   4.293  11.652
 3491SOL     OW40966   4.302   6.121  11.569
 3491SOL    HW140967   4.314   6.187  11.495
 3491SOL    HW240968   4.348   6.155  11.652
 3492SOL     OW40969   6.164   0.535  11.569
 3492SOL    HW140970   6.176   0.601  11.495
 3492SOL    HW240971   6.210   0.569  11.652
 3493SOL     OW40972   6.164   2.397  11.569
 3493SOL    HW140973   6.176   2.463  11.495
 3493SOL    HW240974   6.210   2.431  11.652
 3494SOL     OW40975   6.164   4.259  11.569
 3494SOL    HW140976   6.176   4.325  11.495
 3494SOL    HW240977   6.210   4.293  11.652
 3495SOL     OW40978   6.164   6.121  11.569
 3495SOL    HW140979   6.176   6.187  11.495
 3495SOL    HW240980   6.210   6.155  11.652
 3496SOL     OW40981   0.871   0.954  11.565
 3496SOL    HW140982   0.925   0.885  11.613
 3496SOL    HW240983   0.839   1.023  11.631
 3497SOL     OW40984   0.871   2.816  11.565
 3497SOL    HW140985   0.925   2.747  11.613
 3497SOL    HW240986   0.839   2.885  11.631
 3498SOL     OW40987   0.871   4.678  11.565
 3498SOL    HW140988   0.925   4.609  11.613
 3498SOL    HW240989   0.839   4.747  11.631
 3499SOL     OW40990   2.733   0.954  11.565
 3499SOL    HW140991   2.787   0.885  11.613
 3499SOL    HW240992   2.701   1.023  11.631
 3500SOL     OW40993   2.733   2.816  11.565
 3500SOL    HW140994   2.787   2.747  11.613
 3500SOL    HW240995   2.701   2.885  11.631
 3501SOL     OW40996   2.733   4.678  11.565
 3501SOL    HW140997   2.787   4.609  11.613
 3501SOL    HW240998   2.701   4.747  11.631
 3502SOL     OW40999   4.595   0.954  11.565
 3502SOL    HW141000   4.649   0.885  11.613
 3502SOL    HW241001   4.563   1.023  11.631
 3503SOL     OW41002   4.595   2.816  11.565
 3503SOL    HW141003   4.649   2.747  11.613
 3503SOL    HW241004   4.563   2.885  11.631
 3504SOL     OW41005   4.595   4.678  11.565
 3504SOL    HW141006   4.649   4.609  11.613
 3504SOL    HW241007   4.563   4.747  11.631
 3505SOL     OW41008   0.793   0.262   1.281
 3505SOL    HW141009   0.860   0.201   1.324
 3505SOL    HW241010   0.720   0.281   1.346
 3506SOL     OW41011   0.793   2.124   1.281
 3506SOL    HW141012   0.860   2.063   1.324
 3506SOL    HW241013   0.720   2.143   1.346
 3507SOL     OW41014   0.793   3.986   1.281
 3507SOL    HW141015   0.860   3.925   1.324
 3507SOL    HW241016   0.720   4.005   1.346
 3508SOL     OW41017   0.793   5.848   1.281
 3508SOL    HW141018   0.860   5.787   1.324
 3508SOL    HW241019   0.720   5.867   1.346
 3509SOL     OW41020   2.655   0.262   1.281
 3509SOL    HW141021   2.722   0.201   1.324
 3509SOL    HW241022   2.582   0.281   1.346
 3510SOL     OW41023   2.655   2.124   1.281
 3510SOL    HW141024   2.722   2.063   1.324
 3510SOL    HW241025   2.582   2.143   1.346
 3511SOL     OW41026   2.655   3.986   1.281
 3511SOL    HW141027   2.722   3.925   1.324
 3511SOL    HW241028   2.582   4.005   1.346
 3512SOL     OW41029   2.655   5.848   1.281
 3512SOL    HW141030   2.722   5.787   1.324
 3512SOL    HW241031   2.582   5.867   1.346
 3513SOL     OW41032   4.517   0.262   1.281
 3513SOL    HW141033   4.584   0.201   1.324
 3513SOL    HW241034   4.444   0.281   1.346
 3514SOL     OW41035   4.517   2.124   1.281
 3514SOL    HW141036   4.584   2.063   1.324
 3514SOL    HW241037   4.444   2.143   1.346
 3515SOL     OW41038   4.517   3.986   1.281
 3515SOL    HW141039   4.584   3.925   1.324
 3515SOL    HW241040   4.444   4.005   1.346
 3516SOL     OW41041   4.517   5.848   1.281
 3516SOL    HW141042   4.584   5.787   1.324
 3516SOL    HW241043   4.444   5.867   1.346
 3517SOL     OW41044   0.363   1.799  11.557
 3517SOL    HW141045   0.413   1.713  11.563
 3517SOL    HW241046   0.428   1.876  11.554
 3518SOL     OW41047   0.363   3.661  11.557
 3518SOL    HW141048   0.413   3.575  11.563
 3518SOL    HW241049   0.428   3.738  11.554
 3519SOL     OW41050   0.363   5.523  11.557
 3519SOL    HW141051   0.413   5.437  11.563
 3519SOL    HW241052   0.428   5.600  11.554
 3520SOL     OW41053   2.225   1.799  11.557
 3520SOL    HW141054   2.275   1.713  11.563
 3520SOL    HW241055   2.290   1.876  11.554
 3521SOL     OW41056   2.225   3.661  11.557
 3521SOL    HW141057   2.275   3.575  11.563
 3521SOL    HW241058   2.290   3.738  11.554
 3522SOL     OW41059   2.225   5.523  11.557
 3522SOL    HW141060   2.275   5.437  11.563
 3522SOL    HW241061   2.290   5.600  11.554
 3523SOL     OW41062   4.087   1.799  11.557
 3523SOL    HW141063   4.137   1.713  11.563
 3523SOL    HW241064   4.152   1.876  11.554
 3524SOL     OW41065   4.087   3.661  11.557
 3524SOL    HW141066   4.137   3.575  11.563
 3524SOL    HW241067   4.152   3.738  11.554
 3525SOL     OW41068   4.087   5.523  11.557
 3525SOL    HW141069   4.137   5.437  11.563
 3525SOL    HW241070   4.152   5.600  11.554
 3526SOL     OW41071   5.949   1.799  11.557
 3526SOL    HW141072   5.999   1.713  11.563
 3526SOL    HW241073   6.014   1.876  11.554
 3527SOL     OW41074   5.949   3.661  11.557
 3527SOL    HW141075   5.999   3.575  11.563
 3527SOL    HW241076   6.014   3.738  11.554
 3528SOL     OW41077   5.949   5.523  11.557
 3528SOL    HW141078   5.999   5.437  11.563
 3528SOL    HW241079   6.014   5.600  11.554
 3529SOL     OW41080   1.873   1.567  11.555
 3529SOL    HW141081   1.802   1.555  11.485
 3529SOL    HW241082   1.874   1.488  11.615
 3530SOL     OW41083   1.873   3.429  11.555
 3530SOL    HW141084   1.802   3.417  11.485
 3530SOL    HW241085   1.874   3.350  11.615
 3531SOL     OW41086   1.873   5.291  11.555
 3531SOL    HW141087   1.802   5.279  11.485
 3531SOL    HW241088   1.874   5.212  11.615
 3532SOL     OW41089   3.735   1.567  11.555
 3532SOL    HW141090   3.664   1.555  11.485
 3532SOL    HW241091   3.736   1.488  11.615
 3533SOL     OW41092   3.735   3.429  11.555
 3533SOL    HW141093   3.664   3.417  11.485
 3533SOL    HW241094   3.736   3.350  11.615
 3534SOL     OW41095   3.735   5.291  11.555
 3534SOL    HW141096   3.664   5.279  11.485
 3534SOL    HW241097   3.736   5.212  11.615
 3535SOL     OW41098   5.597   1.567  11.555
 3535SOL    HW141099   5.526   1.555  11.485
 3535SOL    HW241100   5.598   1.488  11.615
 3536SOL     OW41101   5.597   3.429  11.555
 3536SOL    HW141102   5.526   3.417  11.485
 3536SOL    HW241103   5.598   3.350  11.615
 3537SOL     OW41104   5.597   5.291  11.555
 3537SOL    HW141105   5.526   5.279  11.485
 3537SOL    HW241106   5.598   5.212  11.615
 3538SOL     OW41107   1.080   1.331  11.553
 3538SOL    HW141108   1.087   1.247  11.498
 3538SOL    HW241109   1.142   1.400  11.517
 3539SOL     OW41110   1.080   3.193  11.553
 3539SOL    HW141111   1.087   3.109  11.498
 3539SOL    HW241112   1.142   3.262  11.517
 3540SOL     OW41113   1.080   5.055  11.553
 3540SOL    HW141114   1.087   4.971  11.498
 3540SOL    HW241115   1.142   5.124  11.517
 3541SOL     OW41116   2.942   1.331  11.553
 3541SOL    HW141117   2.949   1.247  11.498
 3541SOL    HW241118   3.004   1.400  11.517
 3542SOL     OW41119   2.942   3.193  11.553
 3542SOL    HW141120   2.949   3.109  11.498
 3542SOL    HW241121   3.004   3.262  11.517
 3543SOL     OW41122   2.942   5.055  11.553
 3543SOL    HW141123   2.949   4.971  11.498
 3543SOL    HW241124   3.004   5.124  11.517
 3544SOL     OW41125   4.804   1.331  11.553
 3544SOL    HW141126   4.811   1.247  11.498
 3544SOL    HW241127   4.866   1.400  11.517
 3545SOL     OW41128   4.804   3.193  11.553
 3545SOL    HW141129   4.811   3.109  11.498
 3545SOL    HW241130   4.866   3.262  11.517
 3546SOL     OW41131   4.804   5.055  11.553
 3546SOL    HW141132   4.811   4.971  11.498
 3546SOL    HW241133   4.866   5.124  11.517
 3547SOL     OW41134   0.216   1.331  11.553
 3547SOL    HW141135   0.223   1.247  11.498
 3547SOL    HW241136   0.278   1.400  11.517
 3548SOL     OW41137   0.216   3.193  11.553
 3548SOL    HW141138   0.223   3.109  11.498
 3548SOL    HW241139   0.278   3.262  11.517
 3549SOL     OW41140   0.216   5.055  11.553
 3549SOL    HW141141   0.223   4.971  11.498
 3549SOL    HW241142   0.278   5.124  11.517
 3550SOL     OW41143   1.025   0.103   1.302
 3550SOL    HW141144   1.031   0.188   1.250
 3550SOL    HW241145   1.057   0.027   1.245
 3551SOL     OW41146   1.025   1.965   1.302
 3551SOL    HW141147   1.031   2.050   1.250
 3551SOL    HW241148   1.057   1.889   1.245
 3552SOL     OW41149   1.025   3.827   1.302
 3552SOL    HW141150   1.031   3.912   1.250
 3552SOL    HW241151   1.057   3.751   1.245
 3553SOL     OW41152   1.025   5.689   1.302
 3553SOL    HW141153   1.031   5.774   1.250
 3553SOL    HW241154   1.057   5.613   1.245
 3554SOL     OW41155   2.887   0.103   1.302
 3554SOL    HW141156   2.893   0.188   1.250
 3554SOL    HW241157   2.919   0.027   1.245
 3555SOL     OW41158   2.887   1.965   1.302
 3555SOL    HW141159   2.893   2.050   1.250
 3555SOL    HW241160   2.919   1.889   1.245
 3556SOL     OW41161   2.887   3.827   1.302
 3556SOL    HW141162   2.893   3.912   1.250
 3556SOL    HW241163   2.919   3.751   1.245
 3557SOL     OW41164   2.887   5.689   1.302
 3557SOL    HW141165   2.893   5.774   1.250
 3557SOL    HW241166   2.919   5.613   1.245
 3558SOL     OW41167   4.749   0.103   1.302
 3558SOL    HW141168   4.755   0.188   1.250
 3558SOL    HW241169   4.781   0.027   1.245
 3559SOL     OW41170   4.749   1.965   1.302
 3559SOL    HW141171   4.755   2.050   1.250
 3559SOL    HW241172   4.781   1.889   1.245
 3560SOL     OW41173   4.749   3.827   1.302
 3560SOL    HW141174   4.755   3.912   1.250
 3560SOL    HW241175   4.781   3.751   1.245
 3561SOL     OW41176   4.749   5.689   1.302
 3561SOL    HW141177   4.755   5.774   1.250
 3561SOL    HW241178   4.781   5.613   1.245
 3562SOL     OW41179   0.329   0.249   1.333
 3562SOL    HW141180   0.400   0.320   1.339
 3562SOL    HW241181   0.241   0.288   1.361
 3563SOL     OW41182   0.329   2.111   1.333
 3563SOL    HW141183   0.400   2.182   1.339
 3563SOL    HW241184   0.241   2.150   1.361
 3564SOL     OW41185   0.329   3.973   1.333
 3564SOL    HW141186   0.400   4.044   1.339
 3564SOL    HW241187   0.241   4.012   1.361
 3565SOL     OW41188   0.329   5.835   1.333
 3565SOL    HW141189   0.400   5.906   1.339
 3565SOL    HW241190   0.241   5.874   1.361
 3566SOL     OW41191   2.191   0.249   1.333
 3566SOL    HW141192   2.262   0.320   1.339
 3566SOL    HW241193   2.103   0.288   1.361
 3567SOL     OW41194   2.191   2.111   1.333
 3567SOL    HW141195   2.262   2.182   1.339
 3567SOL    HW241196   2.103   2.150   1.361
 3568SOL     OW41197   2.191   3.973   1.333
 3568SOL    HW141198   2.262   4.044   1.339
 3568SOL    HW241199   2.103   4.012   1.361
 3569SOL     OW41200   2.191   5.835   1.333
 3569SOL    HW141201   2.262   5.906   1.339
 3569SOL    HW241202   2.103   5.874   1.361
 3570SOL     OW41203   4.053   0.249   1.333
 3570SOL    HW141204   4.124   0.320   1.339
 3570SOL    HW241205   3.965   0.288   1.361
 3571SOL     OW41206   4.053   2.111   1.333
 3571SOL    HW141207   4.124   2.182   1.339
 3571SOL    HW241208   3.965   2.150   1.361
 3572SOL     OW41209   4.053   3.973   1.333
 3572SOL    HW141210   4.124   4.044   1.339
 3572SOL    HW241211   3.965   4.012   1.361
 3573SOL     OW41212   4.053   5.835   1.333
 3573SOL    HW141213   4.124   5.906   1.339
 3573SOL    HW241214   3.965   5.874   1.361
 3574SOL     OW41215   5.915   0.249   1.333
 3574SOL    HW141216   5.986   0.320   1.339
 3574SOL    HW241217   5.827   0.288   1.361
 3575SOL     OW41218   5.915   2.111   1.333
 3575SOL    HW141219   5.986   2.182   1.339
 3575SOL    HW241220   5.827   2.150   1.361
 3576SOL     OW41221   5.915   3.973   1.333
 3576SOL    HW141222   5.986   4.044   1.339
 3576SOL    HW241223   5.827   4.012   1.361
 3577SOL     OW41224   5.915   5.835   1.333
 3577SOL    HW141225   5.986   5.906   1.339
 3577SOL    HW241226   5.827   5.874   1.361
 3578SOL     OW41227   0.698   1.159   1.335
 3578SOL    HW141228   0.758   1.238   1.349
 3578SOL    HW241229   0.612   1.190   1.294
 3579SOL     OW41230   0.698   3.021   1.335
 3579SOL    HW141231   0.758   3.100   1.349
 3579SOL    HW241232   0.612   3.052   1.294
 3580SOL     OW41233   0.698   4.883   1.335
 3580SOL    HW141234   0.758   4.962   1.349
 3580SOL    HW241235   0.612   4.914   1.294
 3581SOL     OW41236   2.560   1.159   1.335
 3581SOL    HW141237   2.620   1.238   1.349
 3581SOL    HW241238   2.474   1.190   1.294
 3582SOL     OW41239   2.560   3.021   1.335
 3582SOL    HW141240   2.620   3.100   1.349
 3582SOL    HW241241   2.474   3.052   1.294
 3583SOL     OW41242   2.560   4.883   1.335
 3583SOL    HW141243   2.620   4.962   1.349
 3583SOL    HW241244   2.474   4.914   1.294
 3584SOL     OW41245   4.422   1.159   1.335
 3584SOL    HW141246   4.482   1.238   1.349
 3584SOL    HW241247   4.336   1.190   1.294
 3585SOL     OW41248   4.422   3.021   1.335
 3585SOL    HW141249   4.482   3.100   1.349
 3585SOL    HW241250   4.336   3.052   1.294
 3586SOL     OW41251   4.422   4.883   1.335
 3586SOL    HW141252   4.482   4.962   1.349
 3586SOL    HW241253   4.336   4.914   1.294
 3587SOL     OW41254   6.284   1.159   1.335
 3587SOL    HW141255   6.344   1.238   1.349
 3587SOL    HW241256   6.198   1.190   1.294
 3588SOL     OW41257   6.284   3.021   1.335
 3588SOL    HW141258   6.344   3.100   1.349
 3588SOL    HW241259   6.198   3.052   1.294
 3589SOL     OW41260   6.284   4.883   1.335
 3589SOL    HW141261   6.344   4.962   1.349
 3589SOL    HW241262   6.198   4.914   1.294
 3590SOL     OW41263   0.362   0.896   1.336
 3590SOL    HW141264   0.438   0.940   1.384
 3590SOL    HW241265   0.397   0.849   1.254
 3591SOL     OW41266   0.362   2.758   1.336
 3591SOL    HW141267   0.438   2.802   1.384
 3591SOL    HW241268   0.397   2.711   1.254
 3592SOL     OW41269   0.362   4.620   1.336
 3592SOL    HW141270   0.438   4.664   1.384
 3592SOL    HW241271   0.397   4.573   1.254
 3593SOL     OW41272   2.224   0.896   1.336
 3593SOL    HW141273   2.300   0.940   1.384
 3593SOL    HW241274   2.259   0.849   1.254
 3594SOL     OW41275   2.224   2.758   1.336
 3594SOL    HW141276   2.300   2.802   1.384
 3594SOL    HW241277   2.259   2.711   1.254
 3595SOL     OW41278   2.224   4.620   1.336
 3595SOL    HW141279   2.300   4.664   1.384
 3595SOL    HW241280   2.259   4.573   1.254
 3596SOL     OW41281   4.086   0.896   1.336
 3596SOL    HW141282   4.162   0.940   1.384
 3596SOL    HW241283   4.121   0.849   1.254
 3597SOL     OW41284   4.086   4.620   1.336
 3597SOL    HW141285   4.162   4.664   1.384
 3597SOL    HW241286   4.121   4.573   1.254
 3598SOL     OW41287   5.948   0.896   1.336
 3598SOL    HW141288   6.024   0.940   1.384
 3598SOL    HW241289   5.983   0.849   1.254
 3599SOL     OW41290   5.948   2.758   1.336
 3599SOL    HW141291   6.024   2.802   1.384
 3599SOL    HW241292   5.983   2.711   1.254
 3600SOL     OW41293   5.948   4.620   1.336
 3600SOL    HW141294   6.024   4.664   1.384
 3600SOL    HW241295   5.983   4.573   1.254
 3601SOL     OW41296   1.239   1.568  11.497
 3601SOL    HW141297   1.260   1.642  11.432
 3601SOL    HW241298   1.307   1.568  11.570
 3602SOL     OW41299   1.239   3.430  11.497
 3602SOL    HW141300   1.260   3.504  11.432
 3602SOL    HW241301   1.307   3.430  11.570
 3603SOL     OW41302   1.239   5.292  11.497
 3603SOL    HW141303   1.260   5.366  11.432
 3603SOL    HW241304   1.307   5.292  11.570
 3604SOL     OW41305   3.101   1.568  11.497
 3604SOL    HW141306   3.122   1.642  11.432
 3604SOL    HW241307   3.169   1.568  11.570
 3605SOL     OW41308   3.101   3.430  11.497
 3605SOL    HW141309   3.122   3.504  11.432
 3605SOL    HW241310   3.169   3.430  11.570
 3606SOL     OW41311   3.101   5.292  11.497
 3606SOL    HW141312   3.122   5.366  11.432
 3606SOL    HW241313   3.169   5.292  11.570
 3607SOL     OW41314   4.963   1.568  11.497
 3607SOL    HW141315   4.984   1.642  11.432
 3607SOL    HW241316   5.031   1.568  11.570
 3608SOL     OW41317   4.963   3.430  11.497
 3608SOL    HW141318   4.984   3.504  11.432
 3608SOL    HW241319   5.031   3.430  11.570
 3609SOL     OW41320   4.963   5.292  11.497
 3609SOL    HW141321   4.984   5.366  11.432
 3609SOL    HW241322   5.031   5.292  11.570
 3610SOL     OW41323   0.088   0.809  11.493
 3610SOL    HW141324   0.187   0.797  11.502
 3610SOL    HW241325   0.064   0.904  11.514
 3611SOL     OW41326   0.088   2.671  11.493
 3611SOL    HW141327   0.187   2.659  11.502
 3611SOL    HW241328   0.064   2.766  11.514
 3612SOL     OW41329   0.088   4.533  11.493
 3612SOL    HW141330   0.187   4.521  11.502
 3612SOL    HW241331   0.064   4.628  11.514
 3613SOL     OW41332   0.088   6.395  11.493
 3613SOL    HW141333   0.187   6.383  11.502
 3613SOL    HW241334   0.064   0.040  11.514
 3614SOL     OW41335   1.950   0.809  11.493
 3614SOL    HW141336   2.049   0.797  11.502
 3614SOL    HW241337   1.926   0.904  11.514
 3615SOL     OW41338   1.950   2.671  11.493
 3615SOL    HW141339   2.049   2.659  11.502
 3615SOL    HW241340   1.926   2.766  11.514
 3616SOL     OW41341   1.950   4.533  11.493
 3616SOL    HW141342   2.049   4.521  11.502
 3616SOL    HW241343   1.926   4.628  11.514
 3617SOL     OW41344   3.812   0.809  11.493
 3617SOL    HW141345   3.911   0.797  11.502
 3617SOL    HW241346   3.788   0.904  11.514
 3618SOL     OW41347   3.812   2.671  11.493
 3618SOL    HW141348   3.911   2.659  11.502
 3618SOL    HW241349   3.788   2.766  11.514
 3619SOL     OW41350   3.812   4.533  11.493
 3619SOL    HW141351   3.911   4.521  11.502
 3619SOL    HW241352   3.788   4.628  11.514
 3620SOL     OW41353   5.674   0.809  11.493
 3620SOL    HW141354   5.773   0.797  11.502
 3620SOL    HW241355   5.650   0.904  11.514
 3621SOL     OW41356   5.674   2.671  11.493
 3621SOL    HW141357   5.773   2.659  11.502
 3621SOL    HW241358   5.650   2.766  11.514
 3622SOL     OW41359   5.674   4.533  11.493
 3622SOL    HW141360   5.773   4.521  11.502
 3622SOL    HW241361   5.650   4.628  11.514
 3623SOL     OW41362   0.862   0.796   1.355
 3623SOL    HW141363   0.858   0.872   1.420
 3623SOL    HW241364   0.884   0.832   1.264
 3624SOL     OW41365   0.862   2.658   1.355
 3624SOL    HW141366   0.858   2.734   1.420
 3624SOL    HW241367   0.884   2.694   1.264
 3625SOL     OW41368   0.862   4.520   1.355
 3625SOL    HW141369   0.858   4.596   1.420
 3625SOL    HW241370   0.884   4.556   1.264
 3626SOL     OW41371   0.862   6.382   1.355
 3626SOL    HW141372   0.858   0.008   1.420
 3626SOL    HW241373   0.884   6.418   1.264
 3627SOL     OW41374   2.724   0.796   1.355
 3627SOL    HW141375   2.720   0.872   1.420
 3627SOL    HW241376   2.746   0.832   1.264
 3628SOL     OW41377   2.724   2.658   1.355
 3628SOL    HW141378   2.720   2.734   1.420
 3628SOL    HW241379   2.746   2.694   1.264
 3629SOL     OW41380   2.724   4.520   1.355
 3629SOL    HW141381   2.720   4.596   1.420
 3629SOL    HW241382   2.746   4.556   1.264
 3630SOL     OW41383   2.724   6.382   1.355
 3630SOL    HW141384   2.720   0.008   1.420
 3630SOL    HW241385   2.746   6.418   1.264
 3631SOL     OW41386   4.586   0.796   1.355
 3631SOL    HW141387   4.582   0.872   1.420
 3631SOL    HW241388   4.608   0.832   1.264
 3632SOL     OW41389   4.586   2.658   1.355
 3632SOL    HW141390   4.582   2.734   1.420
 3632SOL    HW241391   4.608   2.694   1.264
 3633SOL     OW41392   4.586   4.520   1.355
 3633SOL    HW141393   4.582   4.596   1.420
 3633SOL    HW241394   4.608   4.556   1.264
 3634SOL     OW41395   4.586   6.382   1.355
 3634SOL    HW141396   4.582   0.008   1.420
 3634SOL    HW241397   4.608   6.418   1.264
 3635SOL     OW41398   6.448   0.796   1.355
 3635SOL    HW141399   6.444   0.872   1.420
 3635SOL    HW241400   0.020   0.832   1.264
 3636SOL     OW41401   6.448   2.658   1.355
 3636SOL    HW141402   6.444   2.734   1.420
 3636SOL    HW241403   0.020   2.694   1.264
 3637SOL     OW41404   6.448   4.520   1.355
 3637SOL    HW141405   6.444   4.596   1.420
 3637SOL    HW241406   0.020   4.556   1.264
 3638SOL     OW41407   1.731   0.583   1.363
 3638SOL    HW141408   1.705   0.672   1.327
 3638SOL    HW241409   1.729   0.515   1.290
 3639SOL     OW41410   1.731   2.445   1.363
 3639SOL    HW141411   1.705   2.534   1.327
 3639SOL    HW241412   1.729   2.377   1.290
 3640SOL     OW41413   1.731   4.307   1.363
 3640SOL    HW141414   1.705   4.396   1.327
 3640SOL    HW241415   1.729   4.239   1.290
 3641SOL     OW41416   1.731   6.169   1.363
 3641SOL    HW141417   1.705   6.258   1.327
 3641SOL    HW241418   1.729   6.101   1.290
 3642SOL     OW41419   3.593   0.583   1.363
 3642SOL    HW141420   3.567   0.672   1.327
 3642SOL    HW241421   3.591   0.515   1.290
 3643SOL     OW41422   3.593   2.445   1.363
 3643SOL    HW141423   3.567   2.534   1.327
 3643SOL    HW241424   3.591   2.377   1.290
 3644SOL     OW41425   3.593   4.307   1.363
 3644SOL    HW141426   3.567   4.396   1.327
 3644SOL    HW241427   3.591   4.239   1.290
 3645SOL     OW41428   3.593   6.169   1.363
 3645SOL    HW141429   3.567   6.258   1.327
 3645SOL    HW241430   3.591   6.101   1.290
 3646SOL     OW41431   5.455   0.583   1.363
 3646SOL    HW141432   5.429   0.672   1.327
 3646SOL    HW241433   5.453   0.515   1.290
 3647SOL     OW41434   5.455   2.445   1.363
 3647SOL    HW141435   5.429   2.534   1.327
 3647SOL    HW241436   5.453   2.377   1.290
 3648SOL     OW41437   5.455   4.307   1.363
 3648SOL    HW141438   5.429   4.396   1.327
 3648SOL    HW241439   5.453   4.239   1.290
 3649SOL     OW41440   5.455   6.169   1.363
 3649SOL    HW141441   5.429   6.258   1.327
 3649SOL    HW241442   5.453   6.101   1.290
 3650SOL     OW41443   0.233   1.312   1.376
 3650SOL    HW141444   0.168   1.239   1.355
 3650SOL    HW241445   0.237   1.326   1.474
 3651SOL     OW41446   0.233   3.174   1.376
 3651SOL    HW141447   0.168   3.101   1.355
 3651SOL    HW241448   0.237   3.188   1.474
 3652SOL     OW41449   0.233   5.036   1.376
 3652SOL    HW141450   0.168   4.963   1.355
 3652SOL    HW241451   0.237   5.050   1.474
 3653SOL     OW41452   2.095   1.312   1.376
 3653SOL    HW141453   2.030   1.239   1.355
 3653SOL    HW241454   2.099   1.326   1.474
 3654SOL     OW41455   2.095   3.174   1.376
 3654SOL    HW141456   2.030   3.101   1.355
 3654SOL    HW241457   2.099   3.188   1.474
 3655SOL     OW41458   2.095   5.036   1.376
 3655SOL    HW141459   2.030   4.963   1.355
 3655SOL    HW241460   2.099   5.050   1.474
 3656SOL     OW41461   3.957   1.312   1.376
 3656SOL    HW141462   3.892   1.239   1.355
 3656SOL    HW241463   3.961   1.326   1.474
 3657SOL     OW41464   3.957   3.174   1.376
 3657SOL    HW141465   3.892   3.101   1.355
 3657SOL    HW241466   3.961   3.188   1.474
 3658SOL     OW41467   5.819   1.312   1.376
 3658SOL    HW141468   5.754   1.239   1.355
 3658SOL    HW241469   5.823   1.326   1.474
 3659SOL     OW41470   5.819   3.174   1.376
 3659SOL    HW141471   5.754   3.101   1.355
 3659SOL    HW241472   5.823   3.188   1.474
 3660SOL     OW41473   5.819   5.036   1.376
 3660SOL    HW141474   5.754   4.963   1.355
 3660SOL    HW241475   5.823   5.050   1.474
 3661SOL     OW41476   0.142   1.792   1.383
 3661SOL    HW141477   0.101   1.718   1.436
 3661SOL    HW241478   0.206   1.843   1.441
 3662SOL     OW41479   0.142   3.654   1.383
 3662SOL    HW141480   0.101   3.580   1.436
 3662SOL    HW241481   0.206   3.705   1.441
 3663SOL     OW41482   0.142   5.516   1.383
 3663SOL    HW141483   0.101   5.442   1.436
 3663SOL    HW241484   0.206   5.567   1.441
 3664SOL     OW41485   2.004   1.792   1.383
 3664SOL    HW141486   1.963   1.718   1.436
 3664SOL    HW241487   2.068   1.843   1.441
 3665SOL     OW41488   2.004   3.654   1.383
 3665SOL    HW141489   1.963   3.580   1.436
 3665SOL    HW241490   2.068   3.705   1.441
 3666SOL     OW41491   2.004   5.516   1.383
 3666SOL    HW141492   1.963   5.442   1.436
 3666SOL    HW241493   2.068   5.567   1.441
 3667SOL     OW41494   3.866   1.792   1.383
 3667SOL    HW141495   3.825   1.718   1.436
 3667SOL    HW241496   3.930   1.843   1.441
 3668SOL     OW41497   3.866   5.516   1.383
 3668SOL    HW141498   3.825   5.442   1.436
 3668SOL    HW241499   3.930   5.567   1.441
 3669SOL     OW41500   5.728   1.792   1.383
 3669SOL    HW141501   5.687   1.718   1.436
 3669SOL    HW241502   5.792   1.843   1.441
 3670SOL     OW41503   5.728   5.516   1.383
 3670SOL    HW141504   5.687   5.442   1.436
 3670SOL    HW241505   5.792   5.567   1.441
 3671SOL     OW41506   1.740   0.933   1.386
 3671SOL    HW141507   1.694   0.926   1.297
 3671SOL    HW241508   1.678   0.977   1.452
 3672SOL     OW41509   1.740   4.657   1.386
 3672SOL    HW141510   1.694   4.650   1.297
 3672SOL    HW241511   1.678   4.701   1.452
 3673SOL     OW41512   1.740   0.069   1.386
 3673SOL    HW141513   1.694   0.062   1.297
 3673SOL    HW241514   1.678   0.113   1.452
 3674SOL     OW41515   3.602   0.933   1.386
 3674SOL    HW141516   3.556   0.926   1.297
 3674SOL    HW241517   3.540   0.977   1.452
 3675SOL     OW41518   3.602   2.795   1.386
 3675SOL    HW141519   3.556   2.788   1.297
 3675SOL    HW241520   3.540   2.839   1.452
 3676SOL     OW41521   3.602   4.657   1.386
 3676SOL    HW141522   3.556   4.650   1.297
 3676SOL    HW241523   3.540   4.701   1.452
 3677SOL     OW41524   3.602   0.069   1.386
 3677SOL    HW141525   3.556   0.062   1.297
 3677SOL    HW241526   3.540   0.113   1.452
 3678SOL     OW41527   5.464   0.933   1.386
 3678SOL    HW141528   5.418   0.926   1.297
 3678SOL    HW241529   5.402   0.977   1.452
 3679SOL     OW41530   5.464   2.795   1.386
 3679SOL    HW141531   5.418   2.788   1.297
 3679SOL    HW241532   5.402   2.839   1.452
 3680SOL     OW41533   5.464   4.657   1.386
 3680SOL    HW141534   5.418   4.650   1.297
 3680SOL    HW241535   5.402   4.701   1.452
 3681SOL     OW41536   5.464   0.069   1.386
 3681SOL    HW141537   5.418   0.062   1.297
 3681SOL    HW241538   5.402   0.113   1.452
 3682SOL     OW41539   1.029   0.037  11.457
 3682SOL    HW141540   0.957   0.042  11.388
 3682SOL    HW241541   1.005   6.418  11.526
 3683SOL     OW41542   1.029   1.899  11.457
 3683SOL    HW141543   0.957   1.904  11.388
 3683SOL    HW241544   1.005   1.830  11.526
 3684SOL     OW41545   1.029   3.761  11.457
 3684SOL    HW141546   0.957   3.766  11.388
 3684SOL    HW241547   1.005   3.692  11.526
 3685SOL     OW41548   1.029   5.623  11.457
 3685SOL    HW141549   0.957   5.628  11.388
 3685SOL    HW241550   1.005   5.554  11.526
 3686SOL     OW41551   2.891   0.037  11.457
 3686SOL    HW141552   2.819   0.042  11.388
 3686SOL    HW241553   2.867   6.418  11.526
 3687SOL     OW41554   2.891   1.899  11.457
 3687SOL    HW141555   2.819   1.904  11.388
 3687SOL    HW241556   2.867   1.830  11.526
 3688SOL     OW41557   2.891   3.761  11.457
 3688SOL    HW141558   2.819   3.766  11.388
 3688SOL    HW241559   2.867   3.692  11.526
 3689SOL     OW41560   2.891   5.623  11.457
 3689SOL    HW141561   2.819   5.628  11.388
 3689SOL    HW241562   2.867   5.554  11.526
 3690SOL     OW41563   4.753   0.037  11.457
 3690SOL    HW141564   4.681   0.042  11.388
 3690SOL    HW241565   4.729   6.418  11.526
 3691SOL     OW41566   4.753   1.899  11.457
 3691SOL    HW141567   4.681   1.904  11.388
 3691SOL    HW241568   4.729   1.830  11.526
 3692SOL     OW41569   4.753   3.761  11.457
 3692SOL    HW141570   4.681   3.766  11.388
 3692SOL    HW241571   4.729   3.692  11.526
 3693SOL     OW41572   4.753   5.623  11.457
 3693SOL    HW141573   4.681   5.628  11.388
 3693SOL    HW241574   4.729   5.554  11.526
 3694SOL     OW41575   0.471   1.150  11.445
 3694SOL    HW141576   0.400   1.123  11.510
 3694SOL    HW241577   0.445   1.122  11.352
 3695SOL     OW41578   0.471   3.012  11.445
 3695SOL    HW141579   0.400   2.985  11.510
 3695SOL    HW241580   0.445   2.984  11.352
 3696SOL     OW41581   0.471   4.874  11.445
 3696SOL    HW141582   0.400   4.847  11.510
 3696SOL    HW241583   0.445   4.846  11.352
 3697SOL     OW41584   2.333   1.150  11.445
 3697SOL    HW141585   2.262   1.123  11.510
 3697SOL    HW241586   2.307   1.122  11.352
 3698SOL     OW41587   2.333   3.012  11.445
 3698SOL    HW141588   2.262   2.985  11.510
 3698SOL    HW241589   2.307   2.984  11.352
 3699SOL     OW41590   2.333   4.874  11.445
 3699SOL    HW141591   2.262   4.847  11.510
 3699SOL    HW241592   2.307   4.846  11.352
 3700SOL     OW41593   4.195   1.150  11.445
 3700SOL    HW141594   4.124   1.123  11.510
 3700SOL    HW241595   4.169   1.122  11.352
 3701SOL     OW41596   4.195   3.012  11.445
 3701SOL    HW141597   4.124   2.985  11.510
 3701SOL    HW241598   4.169   2.984  11.352
 3702SOL     OW41599   4.195   4.874  11.445
 3702SOL    HW141600   4.124   4.847  11.510
 3702SOL    HW241601   4.169   4.846  11.352
 3703SOL     OW41602   6.057   1.150  11.445
 3703SOL    HW141603   5.986   1.123  11.510
 3703SOL    HW241604   6.031   1.122  11.352
 3704SOL     OW41605   1.615   0.445  11.441
 3704SOL    HW141606   1.541   0.491  11.391
 3704SOL    HW241607   1.666   0.513  11.494
 3705SOL     OW41608   1.615   2.307  11.441
 3705SOL    HW141609   1.541   2.353  11.391
 3705SOL    HW241610   1.666   2.375  11.494
 3706SOL     OW41611   1.615   4.169  11.441
 3706SOL    HW141612   1.541   4.215  11.391
 3706SOL    HW241613   1.666   4.237  11.494
 3707SOL     OW41614   1.615   6.031  11.441
 3707SOL    HW141615   1.541   6.077  11.391
 3707SOL    HW241616   1.666   6.099  11.494
 3708SOL     OW41617   3.477   0.445  11.441
 3708SOL    HW141618   3.403   0.491  11.391
 3708SOL    HW241619   3.528   0.513  11.494
 3709SOL     OW41620   3.477   2.307  11.441
 3709SOL    HW141621   3.403   2.353  11.391
 3709SOL    HW241622   3.528   2.375  11.494
 3710SOL     OW41623   3.477   6.031  11.441
 3710SOL    HW141624   3.403   6.077  11.391
 3710SOL    HW241625   3.528   6.099  11.494
 3711SOL     OW41626   5.339   0.445  11.441
 3711SOL    HW141627   5.265   0.491  11.391
 3711SOL    HW241628   5.390   0.513  11.494
 3712SOL     OW41629   5.339   2.307  11.441
 3712SOL    HW141630   5.265   2.353  11.391
 3712SOL    HW241631   5.390   2.375  11.494
 3713SOL     OW41632   5.339   4.169  11.441
 3713SOL    HW141633   5.265   4.215  11.391
 3713SOL    HW241634   5.390   4.237  11.494
 3714SOL     OW41635   5.339   6.031  11.441
 3714SOL    HW141636   5.265   6.077  11.391
 3714SOL    HW241637   5.390   6.099  11.494
 3715SOL     OW41638   1.044   0.547   1.410
 3715SOL    HW141639   1.003   0.629   1.371
 3715SOL    HW241640   1.108   0.573   1.483
 3716SOL     OW41641   0.871   1.372   1.410
 3716SOL    HW141642   0.825   1.387   1.498
 3716SOL    HW241643   0.915   1.457   1.380
 3717SOL     OW41644   1.044   2.409   1.410
 3717SOL    HW141645   1.003   2.491   1.371
 3717SOL    HW241646   1.108   2.435   1.483
 3718SOL     OW41647   0.871   3.234   1.410
 3718SOL    HW141648   0.825   3.249   1.498
 3718SOL    HW241649   0.915   3.319   1.380
 3719SOL     OW41650   1.044   4.271   1.410
 3719SOL    HW141651   1.003   4.353   1.371
 3719SOL    HW241652   1.108   4.297   1.483
 3720SOL     OW41653   0.871   5.096   1.410
 3720SOL    HW141654   0.825   5.111   1.498
 3720SOL    HW241655   0.915   5.181   1.380
 3721SOL     OW41656   1.044   6.133   1.410
 3721SOL    HW141657   1.003   6.215   1.371
 3721SOL    HW241658   1.108   6.159   1.483
 3722SOL     OW41659   2.733   1.372   1.410
 3722SOL    HW141660   2.687   1.387   1.498
 3722SOL    HW241661   2.777   1.457   1.380
 3723SOL     OW41662   2.906   2.409   1.410
 3723SOL    HW141663   2.865   2.491   1.371
 3723SOL    HW241664   2.970   2.435   1.483
 3724SOL     OW41665   2.906   4.271   1.410
 3724SOL    HW141666   2.865   4.353   1.371
 3724SOL    HW241667   2.970   4.297   1.483
 3725SOL     OW41668   2.733   5.096   1.410
 3725SOL    HW141669   2.687   5.111   1.498
 3725SOL    HW241670   2.777   5.181   1.380
 3726SOL     OW41671   2.906   6.133   1.410
 3726SOL    HW141672   2.865   6.215   1.371
 3726SOL    HW241673   2.970   6.159   1.483
 3727SOL     OW41674   4.768   0.547   1.410
 3727SOL    HW141675   4.727   0.629   1.371
 3727SOL    HW241676   4.832   0.573   1.483
 3728SOL     OW41677   4.595   1.372   1.410
 3728SOL    HW141678   4.549   1.387   1.498
 3728SOL    HW241679   4.639   1.457   1.380
 3729SOL     OW41680   4.768   2.409   1.410
 3729SOL    HW141681   4.727   2.491   1.371
 3729SOL    HW241682   4.832   2.435   1.483
 3730SOL     OW41683   4.595   3.234   1.410
 3730SOL    HW141684   4.549   3.249   1.498
 3730SOL    HW241685   4.639   3.319   1.380
 3731SOL     OW41686   4.768   4.271   1.410
 3731SOL    HW141687   4.727   4.353   1.371
 3731SOL    HW241688   4.832   4.297   1.483
 3732SOL     OW41689   4.595   5.096   1.410
 3732SOL    HW141690   4.549   5.111   1.498
 3732SOL    HW241691   4.639   5.181   1.380
 3733SOL     OW41692   4.768   6.133   1.410
 3733SOL    HW141693   4.727   6.215   1.371
 3733SOL    HW241694   4.832   6.159   1.483
 3734SOL     OW41695   1.470   0.733  11.432
 3734SOL    HW141696   1.465   0.668  11.507
 3734SOL    HW241697   1.550   0.792  11.445
 3735SOL     OW41698   1.470   2.595  11.432
 3735SOL    HW141699   1.465   2.530  11.507
 3735SOL    HW241700   1.550   2.654  11.445
 3736SOL     OW41701   1.470   4.457  11.432
 3736SOL    HW141702   1.465   4.392  11.507
 3736SOL    HW241703   1.550   4.516  11.445
 3737SOL     OW41704   1.470   6.319  11.432
 3737SOL    HW141705   1.465   6.254  11.507
 3737SOL    HW241706   1.550   6.378  11.445
 3738SOL     OW41707   3.332   0.733  11.432
 3738SOL    HW141708   3.327   0.668  11.507
 3738SOL    HW241709   3.412   0.792  11.445
 3739SOL     OW41710   3.332   2.595  11.432
 3739SOL    HW141711   3.327   2.530  11.507
 3739SOL    HW241712   3.412   2.654  11.445
 3740SOL     OW41713   3.332   4.457  11.432
 3740SOL    HW141714   3.327   4.392  11.507
 3740SOL    HW241715   3.412   4.516  11.445
 3741SOL     OW41716   3.332   6.319  11.432
 3741SOL    HW141717   3.327   6.254  11.507
 3741SOL    HW241718   3.412   6.378  11.445
 3742SOL     OW41719   5.194   0.733  11.432
 3742SOL    HW141720   5.189   0.668  11.507
 3742SOL    HW241721   5.274   0.792  11.445
 3743SOL     OW41722   5.194   2.595  11.432
 3743SOL    HW141723   5.189   2.530  11.507
 3743SOL    HW241724   5.274   2.654  11.445
 3744SOL     OW41725   5.194   6.319  11.432
 3744SOL    HW141726   5.189   6.254  11.507
 3744SOL    HW241727   5.274   6.378  11.445
 3745SOL     OW41728   0.625   1.363  11.430
 3745SOL    HW141729   0.576   1.276  11.439
 3745SOL    HW241730   0.602   1.406  11.343
 3746SOL     OW41731   0.625   3.225  11.430
 3746SOL    HW141732   0.576   3.138  11.439
 3746SOL    HW241733   0.602   3.268  11.343
 3747SOL     OW41734   0.625   5.087  11.430
 3747SOL    HW141735   0.576   5.000  11.439
 3747SOL    HW241736   0.602   5.130  11.343
 3748SOL     OW41737   2.487   1.363  11.430
 3748SOL    HW141738   2.438   1.276  11.439
 3748SOL    HW241739   2.464   1.406  11.343
 3749SOL     OW41740   2.487   3.225  11.430
 3749SOL    HW141741   2.438   3.138  11.439
 3749SOL    HW241742   2.464   3.268  11.343
 3750SOL     OW41743   2.487   5.087  11.430
 3750SOL    HW141744   2.438   5.000  11.439
 3750SOL    HW241745   2.464   5.130  11.343
 3751SOL     OW41746   4.349   1.363  11.430
 3751SOL    HW141747   4.300   1.276  11.439
 3751SOL    HW241748   4.326   1.406  11.343
 3752SOL     OW41749   4.349   3.225  11.430
 3752SOL    HW141750   4.300   3.138  11.439
 3752SOL    HW241751   4.326   3.268  11.343
 3753SOL     OW41752   6.211   1.363  11.430
 3753SOL    HW141753   6.162   1.276  11.439
 3753SOL    HW241754   6.188   1.406  11.343
 3754SOL     OW41755   6.211   5.087  11.430
 3754SOL    HW141756   6.162   5.000  11.439
 3754SOL    HW241757   6.188   5.130  11.343
 3755SOL     OW41758   0.275   0.324  11.424
 3755SOL    HW141759   0.196   0.375  11.390
 3755SOL    HW241760   0.266   0.309  11.522
 3756SOL     OW41761   0.275   2.186  11.424
 3756SOL    HW141762   0.196   2.237  11.390
 3756SOL    HW241763   0.266   2.171  11.522
 3757SOL     OW41764   0.275   4.048  11.424
 3757SOL    HW141765   0.196   4.099  11.390
 3757SOL    HW241766   0.266   4.033  11.522
 3758SOL     OW41767   0.275   5.910  11.424
 3758SOL    HW141768   0.196   5.961  11.390
 3758SOL    HW241769   0.266   5.895  11.522
 3759SOL     OW41770   2.137   0.324  11.424
 3759SOL    HW141771   2.058   0.375  11.390
 3759SOL    HW241772   2.128   0.309  11.522
 3760SOL     OW41773   2.137   2.186  11.424
 3760SOL    HW141774   2.058   2.237  11.390
 3760SOL    HW241775   2.128   2.171  11.522
 3761SOL     OW41776   2.137   5.910  11.424
 3761SOL    HW141777   2.058   5.961  11.390
 3761SOL    HW241778   2.128   5.895  11.522
 3762SOL     OW41779   3.999   0.324  11.424
 3762SOL    HW141780   3.920   0.375  11.390
 3762SOL    HW241781   3.990   0.309  11.522
 3763SOL     OW41782   3.999   2.186  11.424
 3763SOL    HW141783   3.920   2.237  11.390
 3763SOL    HW241784   3.990   2.171  11.522
 3764SOL     OW41785   3.999   4.048  11.424
 3764SOL    HW141786   3.920   4.099  11.390
 3764SOL    HW241787   3.990   4.033  11.522
 3765SOL     OW41788   3.999   5.910  11.424
 3765SOL    HW141789   3.920   5.961  11.390
 3765SOL    HW241790   3.990   5.895  11.522
 3766SOL     OW41791   5.861   0.324  11.424
 3766SOL    HW141792   5.782   0.375  11.390
 3766SOL    HW241793   5.852   0.309  11.522
 3767SOL     OW41794   5.861   2.186  11.424
 3767SOL    HW141795   5.782   2.237  11.390
 3767SOL    HW241796   5.852   2.171  11.522
 3768SOL     OW41797   5.861   4.048  11.424
 3768SOL    HW141798   5.782   4.099  11.390
 3768SOL    HW241799   5.852   4.033  11.522
 3769SOL     OW41800   1.147   0.701  11.421
 3769SOL    HW141801   1.204   0.779  11.396
 3769SOL    HW241802   1.087   0.727  11.497
 3770SOL     OW41803   1.147   2.563  11.421
 3770SOL    HW141804   1.204   2.641  11.396
 3770SOL    HW241805   1.087   2.589  11.497
 3771SOL     OW41806   3.009   0.701  11.421
 3771SOL    HW141807   3.066   0.779  11.396
 3771SOL    HW241808   2.949   0.727  11.497
 3772SOL     OW41809   3.009   2.563  11.421
 3772SOL    HW141810   3.066   2.641  11.396
 3772SOL    HW241811   2.949   2.589  11.497
 3773SOL     OW41812   3.009   4.425  11.421
 3773SOL    HW141813   3.066   4.503  11.396
 3773SOL    HW241814   2.949   4.451  11.497
 3774SOL     OW41815   4.871   0.701  11.421
 3774SOL    HW141816   4.928   0.779  11.396
 3774SOL    HW241817   4.811   0.727  11.497
 3775SOL     OW41818   4.871   2.563  11.421
 3775SOL    HW141819   4.928   2.641  11.396
 3775SOL    HW241820   4.811   2.589  11.497
 3776SOL     OW41821   4.871   4.425  11.421
 3776SOL    HW141822   4.928   4.503  11.396
 3776SOL    HW241823   4.811   4.451  11.497
 3777SOL     OW41824   1.206   1.610   1.425
 3777SOL    HW141825   1.212   1.517   1.462
 3777SOL    HW241826   1.147   1.610   1.345
 3778SOL     OW41827   1.206   3.472   1.425
 3778SOL    HW141828   1.212   3.379   1.462
 3778SOL    HW241829   1.147   3.472   1.345
 3779SOL     OW41830   1.206   5.334   1.425
 3779SOL    HW141831   1.212   5.241   1.462
 3779SOL    HW241832   1.147   5.334   1.345
 3780SOL     OW41833   3.068   1.610   1.425
 3780SOL    HW141834   3.074   1.517   1.462
 3780SOL    HW241835   3.009   1.610   1.345
 3781SOL     OW41836   3.068   3.472   1.425
 3781SOL    HW141837   3.074   3.379   1.462
 3781SOL    HW241838   3.009   3.472   1.345
 3782SOL     OW41839   3.068   5.334   1.425
 3782SOL    HW141840   3.074   5.241   1.462
 3782SOL    HW241841   3.009   5.334   1.345
 3783SOL     OW41842   4.930   1.610   1.425
 3783SOL    HW141843   4.936   1.517   1.462
 3783SOL    HW241844   4.871   1.610   1.345
 3784SOL     OW41845   4.930   3.472   1.425
 3784SOL    HW141846   4.936   3.379   1.462
 3784SOL    HW241847   4.871   3.472   1.345
 3785SOL     OW41848   4.930   5.334   1.425
 3785SOL    HW141849   4.936   5.241   1.462
 3785SOL    HW241850   4.871   5.334   1.345
 3786SOL     OW41851   0.087   2.205   1.427
 3786SOL    HW141852   6.445   2.177   1.398
 3786SOL    HW241853   0.118   2.282   1.371
 3787SOL     OW41854   0.087   4.067   1.427
 3787SOL    HW141855   6.445   4.039   1.398
 3787SOL    HW241856   0.118   4.144   1.371
 3788SOL     OW41857   0.087   5.929   1.427
 3788SOL    HW141858   6.445   5.901   1.398
 3788SOL    HW241859   0.118   6.006   1.371
 3789SOL     OW41860   1.949   0.343   1.427
 3789SOL    HW141861   1.857   0.315   1.398
 3789SOL    HW241862   1.980   0.420   1.371
 3790SOL     OW41863   1.949   2.205   1.427
 3790SOL    HW141864   1.857   2.177   1.398
 3790SOL    HW241865   1.980   2.282   1.371
 3791SOL     OW41866   1.949   4.067   1.427
 3791SOL    HW141867   1.857   4.039   1.398
 3791SOL    HW241868   1.980   4.144   1.371
 3792SOL     OW41869   1.949   5.929   1.427
 3792SOL    HW141870   1.857   5.901   1.398
 3792SOL    HW241871   1.980   6.006   1.371
 3793SOL     OW41872   3.811   0.343   1.427
 3793SOL    HW141873   3.719   0.315   1.398
 3793SOL    HW241874   3.842   0.420   1.371
 3794SOL     OW41875   3.811   4.067   1.427
 3794SOL    HW141876   3.719   4.039   1.398
 3794SOL    HW241877   3.842   4.144   1.371
 3795SOL     OW41878   5.673   0.343   1.427
 3795SOL    HW141879   5.581   0.315   1.398
 3795SOL    HW241880   5.704   0.420   1.371
 3796SOL     OW41881   5.673   4.067   1.427
 3796SOL    HW141882   5.581   4.039   1.398
 3796SOL    HW241883   5.704   4.144   1.371
 3797SOL     OW41884   5.673   5.929   1.427
 3797SOL    HW141885   5.581   5.901   1.398
 3797SOL    HW241886   5.704   6.006   1.371
 3798SOL     OW41887   1.446   1.186   1.435
 3798SOL    HW141888   1.478   1.110   1.492
 3798SOL    HW241889   1.354   1.213   1.465
 3799SOL     OW41890   1.446   4.910   1.435
 3799SOL    HW141891   1.478   4.834   1.492
 3799SOL    HW241892   1.354   4.937   1.465
 3800SOL     OW41893   3.308   3.048   1.435
 3800SOL    HW141894   3.340   2.972   1.492
 3800SOL    HW241895   3.216   3.075   1.465
 3801SOL     OW41896   3.308   4.910   1.435
 3801SOL    HW141897   3.340   4.834   1.492
 3801SOL    HW241898   3.216   4.937   1.465
 3802SOL     OW41899   5.170   1.186   1.435
 3802SOL    HW141900   5.202   1.110   1.492
 3802SOL    HW241901   5.078   1.213   1.465
 3803SOL     OW41902   5.170   3.048   1.435
 3803SOL    HW141903   5.202   2.972   1.492
 3803SOL    HW241904   5.078   3.075   1.465
 3804SOL     OW41905   5.170   4.910   1.435
 3804SOL    HW141906   5.202   4.834   1.492
 3804SOL    HW241907   5.078   4.937   1.465
 3805SOL     OW41908   1.315   0.836   1.436
 3805SOL    HW141909   1.349   0.743   1.451
 3805SOL    HW241910   1.333   0.863   1.341
 3806SOL     OW41911   1.315   2.698   1.436
 3806SOL    HW141912   1.349   2.605   1.451
 3806SOL    HW241913   1.333   2.725   1.341
 3807SOL     OW41914   1.315   4.560   1.436
 3807SOL    HW141915   1.349   4.467   1.451
 3807SOL    HW241916   1.333   4.587   1.341
 3808SOL     OW41917   3.177   0.836   1.436
 3808SOL    HW141918   3.211   0.743   1.451
 3808SOL    HW241919   3.195   0.863   1.341
 3809SOL     OW41920   3.177   2.698   1.436
 3809SOL    HW141921   3.211   2.605   1.451
 3809SOL    HW241922   3.195   2.725   1.341
 3810SOL     OW41923   3.177   4.560   1.436
 3810SOL    HW141924   3.211   4.467   1.451
 3810SOL    HW241925   3.195   4.587   1.341
 3811SOL     OW41926   5.039   0.836   1.436
 3811SOL    HW141927   5.073   0.743   1.451
 3811SOL    HW241928   5.057   0.863   1.341
 3812SOL     OW41929   5.039   4.560   1.436
 3812SOL    HW141930   5.073   4.467   1.451
 3812SOL    HW241931   5.057   4.587   1.341
 3813SOL     OW41932   1.516   1.605   1.438
 3813SOL    HW141933   1.424   1.642   1.445
 3813SOL    HW241934   1.554   1.625   1.348
 3814SOL     OW41935   1.516   3.467   1.438
 3814SOL    HW141936   1.424   3.504   1.445
 3814SOL    HW241937   1.554   3.487   1.348
 3815SOL     OW41938   1.516   5.329   1.438
 3815SOL    HW141939   1.424   5.366   1.445
 3815SOL    HW241940   1.554   5.349   1.348
 3816SOL     OW41941   3.378   1.605   1.438
 3816SOL    HW141942   3.286   1.642   1.445
 3816SOL    HW241943   3.416   1.625   1.348
 3817SOL     OW41944   3.378   3.467   1.438
 3817SOL    HW141945   3.286   3.504   1.445
 3817SOL    HW241946   3.416   3.487   1.348
 3818SOL     OW41947   3.378   5.329   1.438
 3818SOL    HW141948   3.286   5.366   1.445
 3818SOL    HW241949   3.416   5.349   1.348
 3819SOL     OW41950   5.240   1.605   1.438
 3819SOL    HW141951   5.148   1.642   1.445
 3819SOL    HW241952   5.278   1.625   1.348
 3820SOL     OW41953   5.240   5.329   1.438
 3820SOL    HW141954   5.148   5.366   1.445
 3820SOL    HW241955   5.278   5.349   1.348
 3821SOL     OW41956   1.567   1.509  11.407
 3821SOL    HW141957   1.510   1.493  11.488
 3821SOL    HW241958   1.508   1.519  11.327
 3822SOL     OW41959   1.567   3.371  11.407
 3822SOL    HW141960   1.510   3.355  11.488
 3822SOL    HW241961   1.508   3.381  11.327
 3823SOL     OW41962   1.567   5.233  11.407
 3823SOL    HW141963   1.510   5.217  11.488
 3823SOL    HW241964   1.508   5.243  11.327
 3824SOL     OW41965   3.429   1.509  11.407
 3824SOL    HW141966   3.372   1.493  11.488
 3824SOL    HW241967   3.370   1.519  11.327
 3825SOL     OW41968   3.429   5.233  11.407
 3825SOL    HW141969   3.372   5.217  11.488
 3825SOL    HW241970   3.370   5.243  11.327
 3826SOL     OW41971   5.291   1.509  11.407
 3826SOL    HW141972   5.234   1.493  11.488
 3826SOL    HW241973   5.232   1.519  11.327
 3827SOL     OW41974   5.291   5.233  11.407
 3827SOL    HW141975   5.234   5.217  11.488
 3827SOL    HW241976   5.232   5.243  11.327
 3828SOL     OW41977   1.051   1.096  11.400
 3828SOL    HW141978   0.981   1.049  11.454
 3828SOL    HW241979   1.110   1.028  11.357
 3829SOL     OW41980   1.051   2.958  11.400
 3829SOL    HW141981   0.981   2.911  11.454
 3829SOL    HW241982   1.110   2.890  11.357
 3830SOL     OW41983   1.051   4.820  11.400
 3830SOL    HW141984   0.981   4.773  11.454
 3830SOL    HW241985   1.110   4.752  11.357
 3831SOL     OW41986   2.913   1.096  11.400
 3831SOL    HW141987   2.843   1.049  11.454
 3831SOL    HW241988   2.972   1.028  11.357
 3832SOL     OW41989   2.913   2.958  11.400
 3832SOL    HW141990   2.843   2.911  11.454
 3832SOL    HW241991   2.972   2.890  11.357
 3833SOL     OW41992   2.913   4.820  11.400
 3833SOL    HW141993   2.843   4.773  11.454
 3833SOL    HW241994   2.972   4.752  11.357
 3834SOL     OW41995   4.775   1.096  11.400
 3834SOL    HW141996   4.705   1.049  11.454
 3834SOL    HW241997   4.834   1.028  11.357
 3835SOL     OW41998   4.775   2.958  11.400
 3835SOL    HW141999   4.705   2.911  11.454
 3835SOL    HW242000   4.834   2.890  11.357
 3836SOL     OW42001   4.775   4.820  11.400
 3836SOL    HW142002   4.705   4.773  11.454
 3836SOL    HW242003   4.834   4.752  11.357
 3837SOL     OW42004   1.312   0.451  11.395
 3837SOL    HW142005   1.253   0.531  11.399
 3837SOL    HW242006   1.327   0.416  11.488
 3838SOL     OW42007   1.312   4.175  11.395
 3838SOL    HW142008   1.253   4.255  11.399
 3838SOL    HW242009   1.327   4.140  11.488
 3839SOL     OW42010   1.312   6.037  11.395
 3839SOL    HW142011   1.253   6.117  11.399
 3839SOL    HW242012   1.327   6.002  11.488
 3840SOL     OW42013   3.174   0.451  11.395
 3840SOL    HW142014   3.115   0.531  11.399
 3840SOL    HW242015   3.189   0.416  11.488
 3841SOL     OW42016   3.174   2.313  11.395
 3841SOL    HW142017   3.115   2.393  11.399
 3841SOL    HW242018   3.189   2.278  11.488
 3842SOL     OW42019   3.174   4.175  11.395
 3842SOL    HW142020   3.115   4.255  11.399
 3842SOL    HW242021   3.189   4.140  11.488
 3843SOL     OW42022   3.174   6.037  11.395
 3843SOL    HW142023   3.115   6.117  11.399
 3843SOL    HW242024   3.189   6.002  11.488
 3844SOL     OW42025   5.036   2.313  11.395
 3844SOL    HW142026   4.977   2.393  11.399
 3844SOL    HW242027   5.051   2.278  11.488
 3845SOL     OW42028   5.036   6.037  11.395
 3845SOL    HW142029   4.977   6.117  11.399
 3845SOL    HW242030   5.051   6.002  11.488
 3846SOL     OW42031   0.824   1.584  11.391
 3846SOL    HW142032   0.856   1.594  11.297
 3846SOL    HW242033   0.745   1.522  11.393
 3847SOL     OW42034   0.824   3.446  11.391
 3847SOL    HW142035   0.856   3.456  11.297
 3847SOL    HW242036   0.745   3.384  11.393
 3848SOL     OW42037   0.824   5.308  11.391
 3848SOL    HW142038   0.856   5.318  11.297
 3848SOL    HW242039   0.745   5.246  11.393
 3849SOL     OW42040   2.686   1.584  11.391
 3849SOL    HW142041   2.718   1.594  11.297
 3849SOL    HW242042   2.607   1.522  11.393
 3850SOL     OW42043   2.686   3.446  11.391
 3850SOL    HW142044   2.718   3.456  11.297
 3850SOL    HW242045   2.607   3.384  11.393
 3851SOL     OW42046   2.686   5.308  11.391
 3851SOL    HW142047   2.718   5.318  11.297
 3851SOL    HW242048   2.607   5.246  11.393
 3852SOL     OW42049   4.548   3.446  11.391
 3852SOL    HW142050   4.580   3.456  11.297
 3852SOL    HW242051   4.469   3.384  11.393
 3853SOL     OW42052   4.548   5.308  11.391
 3853SOL    HW142053   4.580   5.318  11.297
 3853SOL    HW242054   4.469   5.246  11.393
 3854SOL     OW42055   6.410   1.584  11.391
 3854SOL    HW142056   6.442   1.594  11.297
 3854SOL    HW242057   6.331   1.522  11.393
 3855SOL     OW42058   6.410   3.446  11.391
 3855SOL    HW142059   6.442   3.456  11.297
 3855SOL    HW242060   6.331   3.384  11.393
 3856SOL     OW42061   6.410   5.308  11.391
 3856SOL    HW142062   6.442   5.318  11.297
 3856SOL    HW242063   6.331   5.246  11.393
 3857SOL     OW42064   1.292   0.925  11.376
 3857SOL    HW142065   1.352   0.844  11.378
 3857SOL    HW242066   1.332   0.994  11.316
 3858SOL     OW42067   1.292   2.787  11.376
 3858SOL    HW142068   1.352   2.706  11.378
 3858SOL    HW242069   1.332   2.856  11.316
 3859SOL     OW42070   1.292   0.061  11.376
 3859SOL    HW142071   1.352   6.430  11.378
 3859SOL    HW242072   1.332   0.130  11.316
 3860SOL     OW42073   3.154   0.925  11.376
 3860SOL    HW142074   3.214   0.844  11.378
 3860SOL    HW242075   3.194   0.994  11.316
 3861SOL     OW42076   3.154   2.787  11.376
 3861SOL    HW142077   3.214   2.706  11.378
 3861SOL    HW242078   3.194   2.856  11.316
 3862SOL     OW42079   3.154   0.061  11.376
 3862SOL    HW142080   3.214   6.430  11.378
 3862SOL    HW242081   3.194   0.130  11.316
 3863SOL     OW42082   5.016   0.925  11.376
 3863SOL    HW142083   5.076   0.844  11.378
 3863SOL    HW242084   5.056   0.994  11.316
 3864SOL     OW42085   5.016   2.787  11.376
 3864SOL    HW142086   5.076   2.706  11.378
 3864SOL    HW242087   5.056   2.856  11.316
 3865SOL     OW42088   5.016   0.061  11.376
 3865SOL    HW142089   5.076   6.430  11.378
 3865SOL    HW242090   5.056   0.130  11.316
 3866SOL     OW42091   1.402   0.573   1.472
 3866SOL    HW142092   1.348   0.552   1.553
 3866SOL    HW242093   1.493   0.532   1.481
 3867SOL     OW42094   1.402   2.435   1.472
 3867SOL    HW142095   1.348   2.414   1.553
 3867SOL    HW242096   1.493   2.394   1.481
 3868SOL     OW42097   1.402   6.159   1.472
 3868SOL    HW142098   1.348   6.138   1.553
 3868SOL    HW242099   1.493   6.118   1.481
 3869SOL     OW42100   3.264   2.435   1.472
 3869SOL    HW142101   3.210   2.414   1.553
 3869SOL    HW242102   3.355   2.394   1.481
 3870SOL     OW42103   5.126   0.573   1.472
 3870SOL    HW142104   5.072   0.552   1.553
 3870SOL    HW242105   5.217   0.532   1.481
 3871SOL     OW42106   5.126   2.435   1.472
 3871SOL    HW142107   5.072   2.414   1.553
 3871SOL    HW242108   5.217   2.394   1.481
 3872SOL     OW42109   5.126   4.297   1.472
 3872SOL    HW142110   5.072   4.276   1.553
 3872SOL    HW242111   5.217   4.256   1.481
 3873SOL     OW42112   1.644   3.237   1.475
 3873SOL    HW142113   1.612   3.331   1.465
 3873SOL    HW242114   1.568   3.174   1.463
 3874SOL     OW42115   1.644   5.099   1.475
 3874SOL    HW142116   1.612   5.193   1.465
 3874SOL    HW242117   1.568   5.036   1.463
 3875SOL     OW42118   3.506   1.375   1.475
 3875SOL    HW142119   3.474   1.469   1.465
 3875SOL    HW242120   3.430   1.312   1.463
 3876SOL     OW42121   3.506   3.237   1.475
 3876SOL    HW142122   3.474   3.331   1.465
 3876SOL    HW242123   3.430   3.174   1.463
 3877SOL     OW42124   3.506   5.099   1.475
 3877SOL    HW142125   3.474   5.193   1.465
 3877SOL    HW242126   3.430   5.036   1.463
 3878SOL     OW42127   5.368   5.099   1.475
 3878SOL    HW142128   5.336   5.193   1.465
 3878SOL    HW242129   5.292   5.036   1.463
 3879SOL     OW42130   0.697   1.010  11.369
 3879SOL    HW142131   0.766   0.994  11.439
 3879SOL    HW242132   0.624   1.067  11.407
 3880SOL     OW42133   0.697   2.872  11.369
 3880SOL    HW142134   0.766   2.856  11.439
 3880SOL    HW242135   0.624   2.929  11.407
 3881SOL     OW42136   0.697   4.734  11.369
 3881SOL    HW142137   0.766   4.718  11.439
 3881SOL    HW242138   0.624   4.791  11.407
 3882SOL     OW42139   0.697   0.146  11.369
 3882SOL    HW142140   0.766   0.130  11.439
 3882SOL    HW242141   0.624   0.203  11.407
 3883SOL     OW42142   2.559   1.010  11.369
 3883SOL    HW142143   2.628   0.994  11.439
 3883SOL    HW242144   2.486   1.067  11.407
 3884SOL     OW42145   2.559   2.872  11.369
 3884SOL    HW142146   2.628   2.856  11.439
 3884SOL    HW242147   2.486   2.929  11.407
 3885SOL     OW42148   2.559   4.734  11.369
 3885SOL    HW142149   2.628   4.718  11.439
 3885SOL    HW242150   2.486   4.791  11.407
 3886SOL     OW42151   2.559   0.146  11.369
 3886SOL    HW142152   2.628   0.130  11.439
 3886SOL    HW242153   2.486   0.203  11.407
 3887SOL     OW42154   4.421   1.010  11.369
 3887SOL    HW142155   4.490   0.994  11.439
 3887SOL    HW242156   4.348   1.067  11.407
 3888SOL     OW42157   4.421   2.872  11.369
 3888SOL    HW142158   4.490   2.856  11.439
 3888SOL    HW242159   4.348   2.929  11.407
 3889SOL     OW42160   4.421   0.146  11.369
 3889SOL    HW142161   4.490   0.130  11.439
 3889SOL    HW242162   4.348   0.203  11.407
 3890SOL     OW42163   6.283   1.010  11.369
 3890SOL    HW142164   6.352   0.994  11.439
 3890SOL    HW242165   6.210   1.067  11.407
 3891SOL     OW42166   6.283   4.734  11.369
 3891SOL    HW142167   6.352   4.718  11.439
 3891SOL    HW242168   6.210   4.791  11.407
 3892SOL     OW42169   6.283   0.146  11.369
 3892SOL    HW142170   6.352   0.130  11.439
 3892SOL    HW242171   6.210   0.203  11.407
 3893SOL     OW42172   1.095   0.982   1.481
 3893SOL    HW142173   1.072   1.035   1.399
 3893SOL    HW242174   1.176   0.926   1.462
 3894SOL     OW42175   1.095   4.706   1.481
 3894SOL    HW142176   1.072   4.759   1.399
 3894SOL    HW242177   1.176   4.650   1.462
 3895SOL     OW42178   2.957   0.982   1.481
 3895SOL    HW142179   2.934   1.035   1.399
 3895SOL    HW242180   3.038   0.926   1.462
 3896SOL     OW42181   2.957   2.844   1.481
 3896SOL    HW142182   2.934   2.897   1.399
 3896SOL    HW242183   3.038   2.788   1.462
 3897SOL     OW42184   2.957   4.706   1.481
 3897SOL    HW142185   2.934   4.759   1.399
 3897SOL    HW242186   3.038   4.650   1.462
 3898SOL     OW42187   4.819   2.844   1.481
 3898SOL    HW142188   4.796   2.897   1.399
 3898SOL    HW242189   4.900   2.788   1.462
 3899SOL     OW42190   4.819   4.706   1.481
 3899SOL    HW142191   4.796   4.759   1.399
 3899SOL    HW242192   4.900   4.650   1.462
 3900SOL     OW42193   1.676   1.278  11.361
 3900SOL    HW142194   1.775   1.286  11.375
 3900SOL    HW242195   1.631   1.362  11.392
 3901SOL     OW42196   1.676   3.140  11.361
 3901SOL    HW142197   1.775   3.148  11.375
 3901SOL    HW242198   1.631   3.224  11.392
 3902SOL     OW42199   1.676   5.002  11.361
 3902SOL    HW142200   1.775   5.010  11.375
 3902SOL    HW242201   1.631   5.086  11.392
 3903SOL     OW42202   3.538   1.278  11.361
 3903SOL    HW142203   3.637   1.286  11.375
 3903SOL    HW242204   3.493   1.362  11.392
 3904SOL     OW42205   3.538   5.002  11.361
 3904SOL    HW142206   3.637   5.010  11.375
 3904SOL    HW242207   3.493   5.086  11.392
 3905SOL     OW42208   5.400   1.278  11.361
 3905SOL    HW142209   5.499   1.286  11.375
 3905SOL    HW242210   5.355   1.362  11.392
 3906SOL     OW42211   5.400   3.140  11.361
 3906SOL    HW142212   5.499   3.148  11.375
 3906SOL    HW242213   5.355   3.224  11.392
 3907SOL     OW42214   5.400   5.002  11.361
 3907SOL    HW142215   5.499   5.010  11.375
 3907SOL    HW242216   5.355   5.086  11.392
 3908SOL     OW42217   0.091   1.238  11.357
 3908SOL    HW142218   0.090   1.191  11.445
 3908SOL    HW242219   0.173   1.210  11.306
 3909SOL     OW42220   0.091   4.962  11.357
 3909SOL    HW142221   0.090   4.915  11.445
 3909SOL    HW242222   0.173   4.934  11.306
 3910SOL     OW42223   1.953   3.100  11.357
 3910SOL    HW142224   1.952   3.053  11.445
 3910SOL    HW242225   2.035   3.072  11.306
 3911SOL     OW42226   1.953   4.962  11.357
 3911SOL    HW142227   1.952   4.915  11.445
 3911SOL    HW242228   2.035   4.934  11.306
 3912SOL     OW42229   3.815   1.238  11.357
 3912SOL    HW142230   3.814   1.191  11.445
 3912SOL    HW242231   3.897   1.210  11.306
 3913SOL     OW42232   3.815   3.100  11.357
 3913SOL    HW142233   3.814   3.053  11.445
 3913SOL    HW242234   3.897   3.072  11.306
 3914SOL     OW42235   3.815   4.962  11.357
 3914SOL    HW142236   3.814   4.915  11.445
 3914SOL    HW242237   3.897   4.934  11.306
 3915SOL     OW42238   5.677   1.238  11.357
 3915SOL    HW142239   5.676   1.191  11.445
 3915SOL    HW242240   5.759   1.210  11.306
 3916SOL     OW42241   5.677   3.100  11.357
 3916SOL    HW142242   5.676   3.053  11.445
 3916SOL    HW242243   5.759   3.072  11.306
 3917SOL     OW42244   5.677   4.962  11.357
 3917SOL    HW142245   5.676   4.915  11.445
 3917SOL    HW242246   5.759   4.934  11.306
 3918SOL     OW42247   0.606   0.743  11.356
 3918SOL    HW142248   0.656   0.828  11.337
 3918SOL    HW242249   0.518   0.745  11.308
 3919SOL     OW42250   0.606   2.605  11.356
 3919SOL    HW142251   0.656   2.690  11.337
 3919SOL    HW242252   0.518   2.607  11.308
 3920SOL     OW42253   0.606   4.467  11.356
 3920SOL    HW142254   0.656   4.552  11.337
 3920SOL    HW242255   0.518   4.469  11.308
 3921SOL     OW42256   2.468   2.605  11.356
 3921SOL    HW142257   2.518   2.690  11.337
 3921SOL    HW242258   2.380   2.607  11.308
 3922SOL     OW42259   2.468   4.467  11.356
 3922SOL    HW142260   2.518   4.552  11.337
 3922SOL    HW242261   2.380   4.469  11.308
 3923SOL     OW42262   4.330   2.605  11.356
 3923SOL    HW142263   4.380   2.690  11.337
 3923SOL    HW242264   4.242   2.607  11.308
 3924SOL     OW42265   4.330   4.467  11.356
 3924SOL    HW142266   4.380   4.552  11.337
 3924SOL    HW242267   4.242   4.469  11.308
 3925SOL     OW42268   4.330   6.329  11.356
 3925SOL    HW142269   4.380   6.414  11.337
 3925SOL    HW242270   4.242   6.331  11.308
 3926SOL     OW42271   6.192   0.743  11.356
 3926SOL    HW142272   6.242   0.828  11.337
 3926SOL    HW242273   6.104   0.745  11.308
 3927SOL     OW42274   6.192   4.467  11.356
 3927SOL    HW142275   6.242   4.552  11.337
 3927SOL    HW242276   6.104   4.469  11.308
 3928SOL     OW42277   0.031   0.366  11.351
 3928SOL    HW142278   6.399   0.409  11.390
 3928SOL    HW242279   0.003   0.293  11.288
 3929SOL     OW42280   0.031   2.228  11.351
 3929SOL    HW142281   6.399   2.271  11.390
 3929SOL    HW242282   0.003   2.155  11.288
 3930SOL     OW42283   0.031   4.090  11.351
 3930SOL    HW142284   6.399   4.133  11.390
 3930SOL    HW242285   0.003   4.017  11.288
 3931SOL     OW42286   0.031   5.952  11.351
 3931SOL    HW142287   6.399   5.995  11.390
 3931SOL    HW242288   0.003   5.879  11.288
 3932SOL     OW42289   1.893   0.366  11.351
 3932SOL    HW142290   1.811   0.409  11.390
 3932SOL    HW242291   1.865   0.293  11.288
 3933SOL     OW42292   1.893   2.228  11.351
 3933SOL    HW142293   1.811   2.271  11.390
 3933SOL    HW242294   1.865   2.155  11.288
 3934SOL     OW42295   1.893   5.952  11.351
 3934SOL    HW142296   1.811   5.995  11.390
 3934SOL    HW242297   1.865   5.879  11.288
 3935SOL     OW42298   3.755   0.366  11.351
 3935SOL    HW142299   3.673   0.409  11.390
 3935SOL    HW242300   3.727   0.293  11.288
 3936SOL     OW42301   3.755   2.228  11.351
 3936SOL    HW142302   3.673   2.271  11.390
 3936SOL    HW242303   3.727   2.155  11.288
 3937SOL     OW42304   3.755   5.952  11.351
 3937SOL    HW142305   3.673   5.995  11.390
 3937SOL    HW242306   3.727   5.879  11.288
 3938SOL     OW42307   5.617   0.366  11.351
 3938SOL    HW142308   5.535   0.409  11.390
 3938SOL    HW242309   5.589   0.293  11.288
 3939SOL     OW42310   5.617   5.952  11.351
 3939SOL    HW142311   5.535   5.995  11.390
 3939SOL    HW242312   5.589   5.879  11.288
 3940SOL     OW42313   0.878   0.452  11.346
 3940SOL    HW142314   0.846   0.524  11.284
 3940SOL    HW242315   0.902   0.371  11.293
 3941SOL     OW42316   0.878   2.314  11.346
 3941SOL    HW142317   0.846   2.386  11.284
 3941SOL    HW242318   0.902   2.233  11.293
 3942SOL     OW42319   0.878   4.176  11.346
 3942SOL    HW142320   0.846   4.248  11.284
 3942SOL    HW242321   0.902   4.095  11.293
 3943SOL     OW42322   0.878   6.038  11.346
 3943SOL    HW142323   0.846   6.110  11.284
 3943SOL    HW242324   0.902   5.957  11.293
 3944SOL     OW42325   2.740   4.176  11.346
 3944SOL    HW142326   2.708   4.248  11.284
 3944SOL    HW242327   2.764   4.095  11.293
 3945SOL     OW42328   4.602   2.314  11.346
 3945SOL    HW142329   4.570   2.386  11.284
 3945SOL    HW242330   4.626   2.233  11.293
 3946SOL     OW42331   4.602   6.038  11.346
 3946SOL    HW142332   4.570   6.110  11.284
 3946SOL    HW242333   4.626   5.957  11.293
 3947SOL     OW42334   0.242   0.626   1.507
 3947SOL    HW142335   0.149   0.624   1.544
 3947SOL    HW242336   0.243   0.587   1.415
 3948SOL     OW42337   0.242   2.488   1.507
 3948SOL    HW142338   0.149   2.486   1.544
 3948SOL    HW242339   0.243   2.449   1.415
 3949SOL     OW42340   0.242   4.350   1.507
 3949SOL    HW142341   0.149   4.348   1.544
 3949SOL    HW242342   0.243   4.311   1.415
 3950SOL     OW42343   0.242   6.212   1.507
 3950SOL    HW142344   0.149   6.210   1.544
 3950SOL    HW242345   0.243   6.173   1.415
 3951SOL     OW42346   2.104   0.626   1.507
 3951SOL    HW142347   2.011   0.624   1.544
 3951SOL    HW242348   2.105   0.587   1.415
 3952SOL     OW42349   2.104   6.212   1.507
 3952SOL    HW142350   2.011   6.210   1.544
 3952SOL    HW242351   2.105   6.173   1.415
 3953SOL     OW42352   3.966   4.350   1.507
 3953SOL    HW142353   3.873   4.348   1.544
 3953SOL    HW242354   3.967   4.311   1.415
 3954SOL     OW42355   3.966   6.212   1.507
 3954SOL    HW142356   3.873   6.210   1.544
 3954SOL    HW242357   3.967   6.173   1.415
 3955SOL     OW42358   5.828   0.626   1.507
 3955SOL    HW142359   5.735   0.624   1.544
 3955SOL    HW242360   5.829   0.587   1.415
 3956SOL     OW42361   5.828   2.488   1.507
 3956SOL    HW142362   5.735   2.486   1.544
 3956SOL    HW242363   5.829   2.449   1.415
 3957SOL     OW42364   5.828   6.212   1.507
 3957SOL    HW142365   5.735   6.210   1.544
 3957SOL    HW242366   5.829   6.173   1.415
 3958SOL     OW42367   0.626   0.120   1.511
 3958SOL    HW142368   0.724   0.098   1.518
 3958SOL    HW242369   0.595   0.103   1.418
 3959SOL     OW42370   0.626   1.982   1.511
 3959SOL    HW142371   0.724   1.960   1.518
 3959SOL    HW242372   0.595   1.965   1.418
 3960SOL     OW42373   0.626   3.844   1.511
 3960SOL    HW142374   0.724   3.822   1.518
 3960SOL    HW242375   0.595   3.827   1.418
 3961SOL     OW42376   1.901   1.594   1.511
 3961SOL    HW142377   1.882   1.498   1.532
 3961SOL    HW242378   1.868   1.652   1.586
 3962SOL     OW42379   1.901   3.456   1.511
 3962SOL    HW142380   1.882   3.360   1.532
 3962SOL    HW242381   1.868   3.514   1.586
 3963SOL     OW42382   2.488   1.982   1.511
 3963SOL    HW142383   2.586   1.960   1.518
 3963SOL    HW242384   2.457   1.965   1.418
 3964SOL     OW42385   1.901   5.318   1.511
 3964SOL    HW142386   1.882   5.222   1.532
 3964SOL    HW242387   1.868   5.376   1.586
 3965SOL     OW42388   2.488   3.844   1.511
 3965SOL    HW142389   2.586   3.822   1.518
 3965SOL    HW242390   2.457   3.827   1.418
 3966SOL     OW42391   2.488   5.706   1.511
 3966SOL    HW142392   2.586   5.684   1.518
 3966SOL    HW242393   2.457   5.689   1.418
 3967SOL     OW42394   3.763   1.594   1.511
 3967SOL    HW142395   3.744   1.498   1.532
 3967SOL    HW242396   3.730   1.652   1.586
 3968SOL     OW42397   4.350   0.120   1.511
 3968SOL    HW142398   4.448   0.098   1.518
 3968SOL    HW242399   4.319   0.103   1.418
 3969SOL     OW42400   4.350   1.982   1.511
 3969SOL    HW142401   4.448   1.960   1.518
 3969SOL    HW242402   4.319   1.965   1.418
 3970SOL     OW42403   4.350   3.844   1.511
 3970SOL    HW142404   4.448   3.822   1.518
 3970SOL    HW242405   4.319   3.827   1.418
 3971SOL     OW42406   4.350   5.706   1.511
 3971SOL    HW142407   4.448   5.684   1.518
 3971SOL    HW242408   4.319   5.689   1.418
 3972SOL     OW42409   6.212   1.982   1.511
 3972SOL    HW142410   6.310   1.960   1.518
 3972SOL    HW242411   6.181   1.965   1.418
 3973SOL     OW42412   5.625   5.318   1.511
 3973SOL    HW142413   5.606   5.222   1.532
 3973SOL    HW242414   5.592   5.376   1.586
 3974SOL     OW42415   6.212   3.844   1.511
 3974SOL    HW142416   6.310   3.822   1.518
 3974SOL    HW242417   6.181   3.827   1.418
 3975SOL     OW42418   1.195   1.333   1.513
 3975SOL    HW142419   1.096   1.322   1.515
 3975SOL    HW242420   1.229   1.348   1.606
 3976SOL     OW42421   1.195   3.195   1.513
 3976SOL    HW142422   1.096   3.184   1.515
 3976SOL    HW242423   1.229   3.210   1.606
 3977SOL     OW42424   1.195   5.057   1.513
 3977SOL    HW142425   1.096   5.046   1.515
 3977SOL    HW242426   1.229   5.072   1.606
 3978SOL     OW42427   3.057   1.333   1.513
 3978SOL    HW142428   2.958   1.322   1.515
 3978SOL    HW242429   3.091   1.348   1.606
 3979SOL     OW42430   3.057   3.195   1.513
 3979SOL    HW142431   2.958   3.184   1.515
 3979SOL    HW242432   3.091   3.210   1.606
 3980SOL     OW42433   3.057   5.057   1.513
 3980SOL    HW142434   2.958   5.046   1.515
 3980SOL    HW242435   3.091   5.072   1.606
 3981SOL     OW42436   0.618   4.686   1.517
 3981SOL    HW142437   0.625   4.770   1.463
 3981SOL    HW242438   0.664   4.699   1.605
 3982SOL     OW42439   2.480   0.962   1.517
 3982SOL    HW142440   2.487   1.046   1.463
 3982SOL    HW242441   2.526   0.975   1.605
 3983SOL     OW42442   2.480   2.824   1.517
 3983SOL    HW142443   2.487   2.908   1.463
 3983SOL    HW242444   2.526   2.837   1.605
 3984SOL     OW42445   2.480   4.686   1.517
 3984SOL    HW142446   2.487   4.770   1.463
 3984SOL    HW242447   2.526   4.699   1.605
 3985SOL     OW42448   4.342   0.962   1.517
 3985SOL    HW142449   4.349   1.046   1.463
 3985SOL    HW242450   4.388   0.975   1.605
 3986SOL     OW42451   4.342   2.824   1.517
 3986SOL    HW142452   4.349   2.908   1.463
 3986SOL    HW242453   4.388   2.837   1.605
 3987SOL     OW42454   4.342   4.686   1.517
 3987SOL    HW142455   4.349   4.770   1.463
 3987SOL    HW242456   4.388   4.699   1.605
 3988SOL     OW42457   6.204   4.686   1.517
 3988SOL    HW142458   6.211   4.770   1.463
 3988SOL    HW242459   6.250   4.699   1.605
 3989SOL     OW42460   1.552   3.996   1.519
 3989SOL    HW142461   1.491   3.921   1.542
 3989SOL    HW242462   1.574   4.048   1.602
 3990SOL     OW42463   3.414   2.134   1.519
 3990SOL    HW142464   3.353   2.059   1.542
 3990SOL    HW242465   3.436   2.186   1.602
 3991SOL     OW42466   3.414   5.858   1.519
 3991SOL    HW142467   3.353   5.783   1.542
 3991SOL    HW242468   3.436   5.910   1.602
 3992SOL     OW42469   5.276   0.272   1.519
 3992SOL    HW142470   5.215   0.197   1.542
 3992SOL    HW242471   5.298   0.324   1.602
 3993SOL     OW42472   5.276   2.134   1.519
 3993SOL    HW142473   5.215   2.059   1.542
 3993SOL    HW242474   5.298   2.186   1.602
 3994SOL     OW42475   5.276   3.996   1.519
 3994SOL    HW142476   5.215   3.921   1.542
 3994SOL    HW242477   5.298   4.048   1.602
 3995SOL     OW42478   5.276   5.858   1.519
 3995SOL    HW142479   5.215   5.783   1.542
 3995SOL    HW242480   5.298   5.910   1.602
 3996SOL     OW42481   0.319   0.061  11.322
 3996SOL    HW142482   0.308   0.155  11.355
 3996SOL    HW242483   0.314   6.448  11.399
 3997SOL     OW42484   0.319   1.923  11.322
 3997SOL    HW142485   0.308   2.017  11.355
 3997SOL    HW242486   0.314   1.860  11.399
 3998SOL     OW42487   0.319   3.785  11.322
 3998SOL    HW142488   0.308   3.879  11.355
 3998SOL    HW242489   0.314   3.722  11.399
 3999SOL     OW42490   0.319   5.647  11.322
 3999SOL    HW142491   0.308   5.741  11.355
 3999SOL    HW242492   0.314   5.584  11.399
 4000SOL     OW42493   2.181   1.923  11.322
 4000SOL    HW142494   2.170   2.017  11.355
 4000SOL    HW242495   2.176   1.860  11.399
 4001SOL     OW42496   4.043   0.061  11.322
 4001SOL    HW142497   4.032   0.155  11.355
 4001SOL    HW242498   4.038   6.448  11.399
 4002SOL     OW42499   5.905   0.061  11.322
 4002SOL    HW142500   5.894   0.155  11.355
 4002SOL    HW242501   5.900   6.448  11.399
 4003SOL     OW42502   5.905   1.923  11.322
 4003SOL    HW142503   5.894   2.017  11.355
 4003SOL    HW242504   5.900   1.860  11.399
 4004SOL     OW42505   5.905   3.785  11.322
 4004SOL    HW142506   5.894   3.879  11.355
 4004SOL    HW242507   5.900   3.722  11.399
 4005SOL     OW42508   0.051   0.084   1.527
 4005SOL    HW142509   0.102   0.085   1.441
 4005SOL    HW242510   0.107   0.042   1.598
 4006SOL     OW42511   0.051   3.808   1.527
 4006SOL    HW142512   0.102   3.809   1.441
 4006SOL    HW242513   0.107   3.766   1.598
 4007SOL     OW42514   0.051   5.670   1.527
 4007SOL    HW142515   0.102   5.671   1.441
 4007SOL    HW242516   0.107   5.628   1.598
 4008SOL     OW42517   1.701   2.782  11.316
 4008SOL    HW142518   1.796   2.753  11.324
 4008SOL    HW242519   1.693   2.847  11.241
 4009SOL     OW42520   1.701   4.644  11.316
 4009SOL    HW142521   1.796   4.615  11.324
 4009SOL    HW242522   1.693   4.709  11.241
 4010SOL     OW42523   3.563   4.644  11.316
 4010SOL    HW142524   3.658   4.615  11.324
 4010SOL    HW242525   3.555   4.709  11.241
 4011SOL     OW42526   5.425   0.920  11.316
 4011SOL    HW142527   5.520   0.891  11.324
 4011SOL    HW242528   5.417   0.985  11.241
 4012SOL     OW42529   5.425   2.782  11.316
 4012SOL    HW142530   5.520   2.753  11.324
 4012SOL    HW242531   5.417   2.847  11.241
 4013SOL     OW42532   2.546   1.614   1.548
 4013SOL    HW142533   2.555   1.624   1.449
 4013SOL    HW242534   2.506   1.525   1.569
 4014SOL     OW42535   2.546   5.338   1.548
 4014SOL    HW142536   2.555   5.348   1.449
 4014SOL    HW242537   2.506   5.249   1.569
 4015SOL     OW42538   4.408   1.614   1.548
 4015SOL    HW142539   4.417   1.624   1.449
 4015SOL    HW242540   4.368   1.525   1.569
 4016SOL     OW42541   4.408   3.476   1.548
 4016SOL    HW142542   4.417   3.486   1.449
 4016SOL    HW242543   4.368   3.387   1.569
 4017SOL     OW42544   4.408   5.338   1.548
 4017SOL    HW142545   4.417   5.348   1.449
 4017SOL    HW242546   4.368   5.249   1.569
 4018SOL     OW42547   6.270   1.614   1.548
 4018SOL    HW142548   6.279   1.624   1.449
 4018SOL    HW242549   6.230   1.525   1.569
 4019SOL     OW42550   6.270   5.338   1.548
 4019SOL    HW142551   6.279   5.348   1.449
 4019SOL    HW242552   6.230   5.249   1.569
 4020SOL     OW42553   1.283   3.657  11.295
 4020SOL    HW142554   1.327   3.721  11.231
 4020SOL    HW242555   1.233   3.709  11.365
 4021SOL     OW42556   3.145   1.795  11.295
 4021SOL    HW142557   3.189   1.859  11.231
 4021SOL    HW242558   3.095   1.847  11.365
 4022SOL     OW42559   5.007   1.795  11.295
 4022SOL    HW142560   5.051   1.859  11.231
 4022SOL    HW242561   4.957   1.847  11.365
 4023SOL     OW42562   5.007   3.657  11.295
 4023SOL    HW142563   5.051   3.721  11.231
 4023SOL    HW242564   4.957   3.709  11.365
 4024SOL     OW42565   1.364   0.050   1.562
 4024SOL    HW142566   1.399   0.009   1.478
 4024SOL    HW242567   1.274   0.012   1.582
 4025SOL     OW42568   1.364   3.774   1.562
 4025SOL    HW142569   1.399   3.733   1.478
 4025SOL    HW242570   1.274   3.736   1.582
 4026SOL     OW42571   1.364   5.636   1.562
 4026SOL    HW142572   1.399   5.595   1.478
 4026SOL    HW242573   1.274   5.598   1.582
 4027SOL     OW42574   3.226   0.050   1.562
 4027SOL    HW142575   3.261   0.009   1.478
 4027SOL    HW242576   3.136   0.012   1.582
 4028SOL     OW42577   3.226   1.912   1.562
 4028SOL    HW142578   3.261   1.871   1.478
 4028SOL    HW242579   3.136   1.874   1.582
 4029SOL     OW42580   3.226   5.636   1.562
 4029SOL    HW142581   3.261   5.595   1.478
 4029SOL    HW242582   3.136   5.598   1.582
 4030SOL     OW42583   5.088   0.050   1.562
 4030SOL    HW142584   5.123   0.009   1.478
 4030SOL    HW242585   4.998   0.012   1.582
 4031SOL     OW42586   5.088   1.912   1.562
 4031SOL    HW142587   5.123   1.871   1.478
 4031SOL    HW242588   4.998   1.874   1.582
 4032SOL     OW42589   5.088   3.774   1.562
 4032SOL    HW142590   5.123   3.733   1.478
 4032SOL    HW242591   4.998   3.736   1.582
 4033SOL     OW42592   5.088   5.636   1.562
 4033SOL    HW142593   5.123   5.595   1.478
 4033SOL    HW242594   4.998   5.598   1.582
 4034SOL     OW42595   0.309   0.033   1.565
 4034SOL    HW142596   0.358   0.117   1.544
 4034SOL    HW242597   0.371   6.418   1.610
 4035SOL     OW42598   0.309   3.757   1.565
 4035SOL    HW142599   0.358   3.841   1.544
 4035SOL    HW242600   0.371   3.692   1.610
 4036SOL     OW42601   2.171   3.757   1.565
 4036SOL    HW142602   2.220   3.841   1.544
 4036SOL    HW242603   2.233   3.692   1.610
 4037SOL     OW42604   2.171   5.619   1.565
 4037SOL    HW142605   2.220   5.703   1.544
 4037SOL    HW242606   2.233   5.554   1.610
 4038SOL     OW42607   4.033   0.033   1.565
 4038SOL    HW142608   4.082   0.117   1.544
 4038SOL    HW242609   4.095   6.418   1.610
 4039SOL     OW42610   4.033   5.619   1.565
 4039SOL    HW142611   4.082   5.703   1.544
 4039SOL    HW242612   4.095   5.554   1.610
 4040SOL     OW42613   5.895   5.619   1.565
 4040SOL    HW142614   5.944   5.703   1.544
 4040SOL    HW242615   5.957   5.554   1.610
 4041SOL     OW42616   0.500   1.383   1.568
 4041SOL    HW142617   0.413   1.368   1.615
 4041SOL    HW242618   0.483   1.409   1.473
 4042SOL     OW42619   0.500   3.245   1.568
 4042SOL    HW142620   0.413   3.230   1.615
 4042SOL    HW242621   0.483   3.271   1.473
 4043SOL     OW42622   2.362   3.245   1.568
 4043SOL    HW142623   2.275   3.230   1.615
 4043SOL    HW242624   2.345   3.271   1.473
 4044SOL     OW42625   4.224   1.383   1.568
 4044SOL    HW142626   4.137   1.368   1.615
 4044SOL    HW242627   4.207   1.409   1.473
 4045SOL     OW42628   4.224   3.245   1.568
 4045SOL    HW142629   4.137   3.230   1.615
 4045SOL    HW242630   4.207   3.271   1.473
 4046SOL     OW42631   4.224   5.107   1.568
 4046SOL    HW142632   4.137   5.092   1.615
 4046SOL    HW242633   4.207   5.133   1.473
 4047SOL     OW42634   6.086   1.383   1.568
 4047SOL    HW142635   5.999   1.368   1.615
 4047SOL    HW242636   6.069   1.409   1.473
 4048SOL     OW42637   6.086   3.245   1.568
 4048SOL    HW142638   5.999   3.230   1.615
 4048SOL    HW242639   6.069   3.271   1.473
 4049SOL     OW42640   6.086   5.107   1.568
 4049SOL    HW142641   5.999   5.092   1.615
 4049SOL    HW242642   6.069   5.133   1.473
 4050SOL     OW42643   1.679   1.712  11.276
 4050SOL    HW142644   1.638   1.689  11.188
 4050SOL    HW242645   1.661   1.638  11.341
 4051SOL     OW42646   1.679   3.574  11.276
 4051SOL    HW142647   1.638   3.551  11.188
 4051SOL    HW242648   1.661   3.500  11.341
 4052SOL     OW42649   1.679   5.436  11.276
 4052SOL    HW142650   1.638   5.413  11.188
 4052SOL    HW242651   1.661   5.362  11.341
 4053SOL     OW42652   3.541   1.712  11.276
 4053SOL    HW142653   3.500   1.689  11.188
 4053SOL    HW242654   3.523   1.638  11.341
 4054SOL     OW42655   5.403   1.712  11.276
 4054SOL    HW142656   5.362   1.689  11.188
 4054SOL    HW242657   5.385   1.638  11.341
 4055SOL     OW42658   5.403   3.574  11.276
 4055SOL    HW142659   5.362   3.551  11.188
 4055SOL    HW242660   5.385   3.500  11.341
 4056SOL     OW42661   0.134   2.503  11.267
 4056SOL    HW142662   0.089   2.415  11.284
 4056SOL    HW242663   0.133   2.557  11.351
 4057SOL     OW42664   0.134   4.365  11.267
 4057SOL    HW142665   0.089   4.277  11.284
 4057SOL    HW242666   0.133   4.419  11.351
 4058SOL     OW42667   0.134   6.227  11.267
 4058SOL    HW142668   0.089   6.139  11.284
 4058SOL    HW242669   0.133   6.281  11.351
 4059SOL     OW42670   1.996   0.641  11.267
 4059SOL    HW142671   1.951   0.553  11.284
 4059SOL    HW242672   1.995   0.695  11.351
 4060SOL     OW42673   1.996   4.365  11.267
 4060SOL    HW142674   1.951   4.277  11.284
 4060SOL    HW242675   1.995   4.419  11.351
 4061SOL     OW42676   1.996   6.227  11.267
 4061SOL    HW142677   1.951   6.139  11.284
 4061SOL    HW242678   1.995   6.281  11.351
 4062SOL     OW42679   3.858   2.503  11.267
 4062SOL    HW142680   3.813   2.415  11.284
 4062SOL    HW242681   3.857   2.557  11.351
 4063SOL     OW42682   3.858   4.365  11.267
 4063SOL    HW142683   3.813   4.277  11.284
 4063SOL    HW242684   3.857   4.419  11.351
 4064SOL     OW42685   3.858   6.227  11.267
 4064SOL    HW142686   3.813   6.139  11.284
 4064SOL    HW242687   3.857   6.281  11.351
 4065SOL     OW42688   5.720   4.365  11.267
 4065SOL    HW142689   5.675   4.277  11.284
 4065SOL    HW242690   5.719   4.419  11.351
 4066SOL     OW42691   5.720   6.227  11.267
 4066SOL    HW142692   5.675   6.139  11.284
 4066SOL    HW242693   5.719   6.281  11.351
 4067SOL     OW42694   1.537   4.721   1.584
 4067SOL    HW142695   1.474   4.645   1.597
 4067SOL    HW242696   1.585   4.739   1.670
 4068SOL     OW42697   3.399   4.721   1.584
 4068SOL    HW142698   3.336   4.645   1.597
 4068SOL    HW242699   3.447   4.739   1.670
 4069SOL     OW42700   5.261   0.997   1.584
 4069SOL    HW142701   5.198   0.921   1.597
 4069SOL    HW242702   5.309   1.015   1.670
 4070SOL     OW42703   5.261   2.859   1.584
 4070SOL    HW142704   5.198   2.783   1.597
 4070SOL    HW242705   5.309   2.877   1.670
 4071SOL     OW42706   5.261   4.721   1.584
 4071SOL    HW142707   5.198   4.645   1.597
 4071SOL    HW242708   5.309   4.739   1.670
 4072SOL     OW42709   0.485   0.498   1.585
 4072SOL    HW142710   0.546   0.578   1.589
 4072SOL    HW242711   0.390   0.529   1.592
 4073SOL     OW42712   0.485   2.360   1.585
 4073SOL    HW142713   0.546   2.440   1.589
 4073SOL    HW242714   0.390   2.391   1.592
 4074SOL     OW42715   0.485   4.222   1.585
 4074SOL    HW142716   0.546   4.302   1.589
 4074SOL    HW242717   0.390   4.253   1.592
 4075SOL     OW42718   2.347   0.498   1.585
 4075SOL    HW142719   2.408   0.578   1.589
 4075SOL    HW242720   2.252   0.529   1.592
 4076SOL     OW42721   2.347   6.084   1.585
 4076SOL    HW142722   2.408   6.164   1.589
 4076SOL    HW242723   2.252   6.115   1.592
 4077SOL     OW42724   6.071   0.498   1.585
 4077SOL    HW142725   6.132   0.578   1.589
 4077SOL    HW242726   5.976   0.529   1.592
 4078SOL     OW42727   6.071   6.084   1.585
 4078SOL    HW142728   6.132   6.164   1.589
 4078SOL    HW242729   5.976   6.115   1.592
 4079SOL     OW42730   0.877   2.208   1.589
 4079SOL    HW142731   0.936   2.271   1.540
 4079SOL    HW242732   0.896   2.114   1.560
 4080SOL     OW42733   0.877   4.070   1.589
 4080SOL    HW142734   0.936   4.133   1.540
 4080SOL    HW242735   0.896   3.976   1.560
 4081SOL     OW42736   2.739   0.346   1.589
 4081SOL    HW142737   2.798   0.409   1.540
 4081SOL    HW242738   2.758   0.252   1.560
 4082SOL     OW42739   2.739   4.070   1.589
 4082SOL    HW142740   2.798   4.133   1.540
 4082SOL    HW242741   2.758   3.976   1.560
 4083SOL     OW42742   2.739   5.932   1.589
 4083SOL    HW142743   2.798   5.995   1.540
 4083SOL    HW242744   2.758   5.838   1.560
 4084SOL     OW42745   4.601   0.346   1.589
 4084SOL    HW142746   4.660   0.409   1.540
 4084SOL    HW242747   4.620   0.252   1.560
 4085SOL     OW42748   4.601   2.208   1.589
 4085SOL    HW142749   4.660   2.271   1.540
 4085SOL    HW242750   4.620   2.114   1.560
 4086SOL     OW42751   4.601   4.070   1.589
 4086SOL    HW142752   4.660   4.133   1.540
 4086SOL    HW242753   4.620   3.976   1.560
 4087SOL     OW42754   0.020   1.324   1.594
 4087SOL    HW142755   6.377   1.345   1.563
 4087SOL    HW242756   0.030   1.225   1.607
 4088SOL     OW42757   0.020   3.186   1.594
 4088SOL    HW142758   6.377   3.207   1.563
 4088SOL    HW242759   0.030   3.087   1.607
 4089SOL     OW42760   0.020   5.048   1.594
 4089SOL    HW142761   6.377   5.069   1.563
 4089SOL    HW242762   0.030   4.949   1.607
 4090SOL     OW42763   1.882   3.186   1.594
 4090SOL    HW142764   1.789   3.207   1.563
 4090SOL    HW242765   1.892   3.087   1.607
 4091SOL     OW42766   1.882   5.048   1.594
 4091SOL    HW142767   1.789   5.069   1.563
 4091SOL    HW242768   1.892   4.949   1.607
 4092SOL     OW42769   3.744   1.324   1.594
 4092SOL    HW142770   3.651   1.345   1.563
 4092SOL    HW242771   3.754   1.225   1.607
 4093SOL     OW42772   3.744   3.186   1.594
 4093SOL    HW142773   3.651   3.207   1.563
 4093SOL    HW242774   3.754   3.087   1.607
 4094SOL     OW42775   1.374   3.004  11.249
 4094SOL    HW142776   1.457   2.975  11.201
 4094SOL    HW242777   1.325   3.071  11.193
 4095SOL     OW42778   3.236   1.142  11.249
 4095SOL    HW142779   3.319   1.113  11.201
 4095SOL    HW242780   3.187   1.209  11.193
 4096SOL     OW42781   5.098   3.004  11.249
 4096SOL    HW142782   5.181   2.975  11.201
 4096SOL    HW242783   5.049   3.071  11.193
 4097SOL     OW42784   0.242   5.156  11.242
 4097SOL    HW142785   0.216   5.252  11.242
 4097SOL    HW242786   0.171   5.102  11.287
 4098SOL     OW42787   2.104   5.156  11.242
 4098SOL    HW142788   2.078   5.252  11.242
 4098SOL    HW242789   2.033   5.102  11.287
 4099SOL     OW42790   3.966   1.432  11.242
 4099SOL    HW142791   3.940   1.528  11.242
 4099SOL    HW242792   3.895   1.378  11.287
 4100SOL     OW42793   3.966   5.156  11.242
 4100SOL    HW142794   3.940   5.252  11.242
 4100SOL    HW242795   3.895   5.102  11.287
 4101SOL     OW42796   5.828   1.432  11.242
 4101SOL    HW142797   5.802   1.528  11.242
 4101SOL    HW242798   5.757   1.378  11.287
 4102SOL     OW42799   5.828   3.294  11.242
 4102SOL    HW142800   5.802   3.390  11.242
 4102SOL    HW242801   5.757   3.240  11.287
 4103SOL     OW42802   5.828   5.156  11.242
 4103SOL    HW142803   5.802   5.252  11.242
 4103SOL    HW242804   5.757   5.102  11.287
 4104SOL     OW42805   1.738   1.995  11.227
 4104SOL    HW142806   1.811   1.978  11.160
 4104SOL    HW242807   1.707   1.908  11.265
 4105SOL     OW42808   1.738   3.857  11.227
 4105SOL    HW142809   1.811   3.840  11.160
 4105SOL    HW242810   1.707   3.770  11.265
 4106SOL     OW42811   1.738   5.719  11.227
 4106SOL    HW142812   1.811   5.702  11.160
 4106SOL    HW242813   1.707   5.632  11.265
 4107SOL     OW42814   3.600   1.995  11.227
 4107SOL    HW142815   3.673   1.978  11.160
 4107SOL    HW242816   3.569   1.908  11.265
 4108SOL     OW42817   5.462   1.995  11.227
 4108SOL    HW142818   5.535   1.978  11.160
 4108SOL    HW242819   5.431   1.908  11.265
 4109SOL     OW42820   5.462   5.719  11.227
 4109SOL    HW142821   5.535   5.702  11.160
 4109SOL    HW242822   5.431   5.632  11.265
 4110SOL     OW42823   0.440   0.422  11.224
 4110SOL    HW142824   0.470   0.350  11.162
 4110SOL    HW242825   0.401   0.382  11.307
 4111SOL     OW42826   2.302   0.422  11.224
 4111SOL    HW142827   2.332   0.350  11.162
 4111SOL    HW242828   2.263   0.382  11.307
 4112SOL     OW42829   2.302   2.284  11.224
 4112SOL    HW142830   2.332   2.212  11.162
 4112SOL    HW242831   2.263   2.244  11.307
 4113SOL     OW42832   4.164   0.422  11.224
 4113SOL    HW142833   4.194   0.350  11.162
 4113SOL    HW242834   4.125   0.382  11.307
 4114SOL     OW42835   6.026   0.422  11.224
 4114SOL    HW142836   6.056   0.350  11.162
 4114SOL    HW242837   5.987   0.382  11.307
 4115SOL     OW42838   6.026   2.284  11.224
 4115SOL    HW142839   6.056   2.212  11.162
 4115SOL    HW242840   5.987   2.244  11.307
 4116SOL     OW42841   1.767   0.605   1.625
 4116SOL    HW142842   1.755   0.592   1.526
 4116SOL    HW242843   1.737   0.524   1.674
 4117SOL     OW42844   1.767   6.191   1.625
 4117SOL    HW142845   1.755   6.178   1.526
 4117SOL    HW242846   1.737   6.110   1.674
 4118SOL     OW42847   3.629   0.605   1.625
 4118SOL    HW142848   3.617   0.592   1.526
 4118SOL    HW242849   3.599   0.524   1.674
 4119SOL     OW42850   3.629   2.467   1.625
 4119SOL    HW142851   3.617   2.454   1.526
 4119SOL    HW242852   3.599   2.386   1.674
 4120SOL     OW42853   3.629   6.191   1.625
 4120SOL    HW142854   3.617   6.178   1.526
 4120SOL    HW242855   3.599   6.110   1.674
 4121SOL     OW42856   5.491   0.605   1.625
 4121SOL    HW142857   5.479   0.592   1.526
 4121SOL    HW242858   5.461   0.524   1.674
 4122SOL     OW42859   5.491   2.467   1.625
 4122SOL    HW142860   5.479   2.454   1.526
 4122SOL    HW242861   5.461   2.386   1.674
 4123SOL     OW42862   5.491   4.329   1.625
 4123SOL    HW142863   5.479   4.316   1.526
 4123SOL    HW242864   5.461   4.248   1.674
 4124SOL     OW42865   0.551   1.924  11.216
 4124SOL    HW142866   0.470   1.925  11.274
 4124SOL    HW242867   0.554   2.007  11.161
 4125SOL     OW42868   2.413   0.062  11.216
 4125SOL    HW142869   2.332   0.063  11.274
 4125SOL    HW242870   2.416   0.145  11.161
 4126SOL     OW42871   2.413   1.924  11.216
 4126SOL    HW142872   2.332   1.925  11.274
 4126SOL    HW242873   2.416   2.007  11.161
 4127SOL     OW42874   4.275   0.062  11.216
 4127SOL    HW142875   4.194   0.063  11.274
 4127SOL    HW242876   4.278   0.145  11.161
 4128SOL     OW42877   6.137   0.062  11.216
 4128SOL    HW142878   6.056   0.063  11.274
 4128SOL    HW242879   6.140   0.145  11.161
 4129SOL     OW42880   6.137   1.924  11.216
 4129SOL    HW142881   6.056   1.925  11.274
 4129SOL    HW242882   6.140   2.007  11.161
 4130SOL     OW42883   1.123   1.774   1.631
 4130SOL    HW142884   1.063   1.712   1.681
 4130SOL    HW242885   1.154   1.730   1.546
 4131SOL     OW42886   1.123   5.498   1.631
 4131SOL    HW142887   1.063   5.436   1.681
 4131SOL    HW242888   1.154   5.454   1.546
 4132SOL     OW42889   2.985   1.774   1.631
 4132SOL    HW142890   2.925   1.712   1.681
 4132SOL    HW242891   3.016   1.730   1.546
 4133SOL     OW42892   2.985   3.636   1.631
 4133SOL    HW142893   2.925   3.574   1.681
 4133SOL    HW242894   3.016   3.592   1.546
 4134SOL     OW42895   4.847   5.498   1.631
 4134SOL    HW142896   4.787   5.436   1.681
 4134SOL    HW242897   4.878   5.454   1.546
 4135SOL     OW42898   0.333   0.941   1.636
 4135SOL    HW142899   0.415   0.980   1.594
 4135SOL    HW242900   0.306   0.859   1.587
 4136SOL     OW42901   0.333   2.803   1.636
 4136SOL    HW142902   0.415   2.842   1.594
 4136SOL    HW242903   0.306   2.721   1.587
 4137SOL     OW42904   0.333   4.665   1.636
 4137SOL    HW142905   0.415   4.704   1.594
 4137SOL    HW242906   0.306   4.583   1.587
 4138SOL     OW42907   2.195   0.941   1.636
 4138SOL    HW142908   2.277   0.980   1.594
 4138SOL    HW242909   2.168   0.859   1.587
 4139SOL     OW42910   2.195   2.803   1.636
 4139SOL    HW142911   2.277   2.842   1.594
 4139SOL    HW242912   2.168   2.721   1.587
 4140SOL     OW42913   4.057   4.665   1.636
 4140SOL    HW142914   4.139   4.704   1.594
 4140SOL    HW242915   4.030   4.583   1.587
 4141SOL     OW42916   5.919   0.941   1.636
 4141SOL    HW142917   6.001   0.980   1.594
 4141SOL    HW242918   5.892   0.859   1.587
 4142SOL     OW42919   5.919   4.665   1.636
 4142SOL    HW142920   6.001   4.704   1.594
 4142SOL    HW242921   5.892   4.583   1.587
 4143SOL     OW42922   0.821   1.864  11.206
 4143SOL    HW142923   0.861   1.955  11.197
 4143SOL    HW242924   0.721   1.872  11.212
 4144SOL     OW42925   0.821   3.726  11.206
 4144SOL    HW142926   0.861   3.817  11.197
 4144SOL    HW242927   0.721   3.734  11.212
 4145SOL     OW42928   0.821   5.588  11.206
 4145SOL    HW142929   0.861   5.679  11.197
 4145SOL    HW242930   0.721   5.596  11.212
 4146SOL     OW42931   4.545   0.002  11.206
 4146SOL    HW142932   4.585   0.093  11.197
 4146SOL    HW242933   4.445   0.010  11.212
 4147SOL     OW42934   6.407   0.002  11.206
 4147SOL    HW142935   6.447   0.093  11.197
 4147SOL    HW242936   6.307   0.010  11.212
 4148SOL     OW42937   6.407   1.864  11.206
 4148SOL    HW142938   6.447   1.955  11.197
 4148SOL    HW242939   6.307   1.872  11.212
 4149SOL     OW42940   6.407   5.588  11.206
 4149SOL    HW142941   6.447   5.679  11.197
 4149SOL    HW242942   6.307   5.596  11.212
 4150SOL     OW42943   0.379   4.822  11.205
 4150SOL    HW142944   0.372   4.905  11.149
 4150SOL    HW242945   0.383   4.742  11.145
 4151SOL     OW42946   2.241   1.098  11.205
 4151SOL    HW142947   2.234   1.181  11.149
 4151SOL    HW242948   2.245   1.018  11.145
 4152SOL     OW42949   4.103   1.098  11.205
 4152SOL    HW142950   4.096   1.181  11.149
 4152SOL    HW242951   4.107   1.018  11.145
 4153SOL     OW42952   0.602   1.485  11.195
 4153SOL    HW142953   0.644   1.427  11.125
 4153SOL    HW242954   0.558   1.564  11.151
 4154SOL     OW42955   0.602   3.347  11.195
 4154SOL    HW142956   0.644   3.289  11.125
 4154SOL    HW242957   0.558   3.426  11.151
 4155SOL     OW42958   0.243   3.573  11.187
 4155SOL    HW142959   0.277   3.650  11.241
 4155SOL    HW242960   0.287   3.573  11.097
 4156SOL     OW42961   2.105   1.711  11.187
 4156SOL    HW142962   2.139   1.788  11.241
 4156SOL    HW242963   2.149   1.711  11.097
 4157SOL     OW42964   3.967   1.711  11.187
 4157SOL    HW142965   4.001   1.788  11.241
 4157SOL    HW242966   4.011   1.711  11.097
 4158SOL     OW42967   3.967   3.573  11.187
 4158SOL    HW142968   4.001   3.650  11.241
 4158SOL    HW242969   4.011   3.573  11.097
 4159SOL     OW42970   3.967   5.435  11.187
 4159SOL    HW142971   4.001   5.512  11.241
 4159SOL    HW242972   4.011   5.435  11.097
 4160SOL     OW42973   0.947   0.234  11.184
 4160SOL    HW142974   0.899   0.275  11.106
 4160SOL    HW242975   1.046   0.232  11.165
 4161SOL     OW42976   0.394   2.560  11.184
 4161SOL    HW142977   0.439   2.470  11.181
 4161SOL    HW242978   0.300   2.549  11.217
 4162SOL     OW42979   0.394   4.422  11.184
 4162SOL    HW142980   0.439   4.332  11.181
 4162SOL    HW242981   0.300   4.411  11.217
 4163SOL     OW42982   0.947   3.958  11.184
 4163SOL    HW142983   0.899   3.999  11.106
 4163SOL    HW242984   1.046   3.956  11.165
 4164SOL     OW42985   2.256   0.698  11.184
 4164SOL    HW142986   2.301   0.608  11.181
 4164SOL    HW242987   2.162   0.687  11.217
 4165SOL     OW42988   2.809   0.234  11.184
 4165SOL    HW142989   2.761   0.275  11.106
 4165SOL    HW242990   2.908   0.232  11.165
 4166SOL     OW42991   4.671   0.234  11.184
 4166SOL    HW142992   4.623   0.275  11.106
 4166SOL    HW242993   4.770   0.232  11.165
 4167SOL     OW42994   4.118   2.560  11.184
 4167SOL    HW142995   4.163   2.470  11.181
 4167SOL    HW242996   4.024   2.549  11.217
 4168SOL     OW42997   4.671   2.096  11.184
 4168SOL    HW142998   4.623   2.137  11.106
 4168SOL    HW242999   4.770   2.094  11.165
 4169SOL     OW43000   4.118   6.284  11.184
 4169SOL    HW143001   4.163   6.194  11.181
 4169SOL    HW243002   4.024   6.273  11.217
 4170SOL     OW43003   4.671   5.820  11.184
 4170SOL    HW143004   4.623   5.861  11.106
 4170SOL    HW243005   4.770   5.818  11.165
 4171SOL     OW43006   5.980   4.422  11.184
 4171SOL    HW143007   6.025   4.332  11.181
 4171SOL    HW243008   5.886   4.411  11.217
 4172SOL     OW43009   0.610   2.589   1.664
 4172SOL    HW143010   0.634   2.658   1.596
 4172SOL    HW243011   0.532   2.622   1.718
 4173SOL     OW43012   0.610   4.451   1.664
 4173SOL    HW143013   0.634   4.520   1.596
 4173SOL    HW243014   0.532   4.484   1.718
 4174SOL     OW43015   0.610   6.313   1.664
 4174SOL    HW143016   0.634   6.382   1.596
 4174SOL    HW243017   0.532   6.346   1.718
 4175SOL     OW43018   2.472   0.727   1.664
 4175SOL    HW143019   2.496   0.796   1.596
 4175SOL    HW243020   2.394   0.760   1.718
 4176SOL     OW43021   4.334   0.727   1.664
 4176SOL    HW143022   4.358   0.796   1.596
 4176SOL    HW243023   4.256   0.760   1.718
 4177SOL     OW43024   4.334   2.589   1.664
 4177SOL    HW143025   4.358   2.658   1.596
 4177SOL    HW243026   4.256   2.622   1.718
 4178SOL     OW43027   4.334   6.313   1.664
 4178SOL    HW143028   4.358   6.382   1.596
 4178SOL    HW243029   4.256   6.346   1.718
 4179SOL     OW43030   6.196   6.313   1.664
 4179SOL    HW143031   6.220   6.382   1.596
 4179SOL    HW243032   6.118   6.346   1.718
 4180SOL     OW43033   1.400   3.433  11.181
 4180SOL    HW143034   1.467   3.445  11.107
 4180SOL    HW243035   1.360   3.522  11.204
 4181SOL     OW43036   1.020   5.178  11.181
 4181SOL    HW143037   0.974   5.250  11.129
 4181SOL    HW243038   1.016   5.198  11.279
 4182SOL     OW43039   4.744   3.316  11.181
 4182SOL    HW143040   4.698   3.388  11.129
 4182SOL    HW243041   4.740   3.336  11.279
 4183SOL     OW43042   4.744   5.178  11.181
 4183SOL    HW143043   4.698   5.250  11.129
 4183SOL    HW243044   4.740   5.198  11.279
 4184SOL     OW43045   1.221   0.523   1.669
 4184SOL    HW143046   1.234   0.439   1.723
 4184SOL    HW243047   1.192   0.597   1.729
 4185SOL     OW43048   1.221   6.109   1.669
 4185SOL    HW143049   1.234   6.025   1.723
 4185SOL    HW243050   1.192   6.183   1.729
 4186SOL     OW43051   3.083   2.385   1.669
 4186SOL    HW143052   3.096   2.301   1.723
 4186SOL    HW243053   3.054   2.459   1.729
 4187SOL     OW43054   4.945   0.523   1.669
 4187SOL    HW143055   4.958   0.439   1.723
 4187SOL    HW243056   4.916   0.597   1.729
 4188SOL     OW43057   1.594   2.499  11.176
 4188SOL    HW143058   1.563   2.560  11.249
 4188SOL    HW243059   1.644   2.551  11.107
 4189SOL     OW43060   1.594   4.361  11.176
 4189SOL    HW143061   1.563   4.422  11.249
 4189SOL    HW243062   1.644   4.413  11.107
 4190SOL     OW43063   3.456   0.637  11.176
 4190SOL    HW143064   3.425   0.698  11.249
 4190SOL    HW243065   3.506   0.689  11.107
 4191SOL     OW43066   0.267   1.346   1.684
 4191SOL    HW143067   0.171   1.347   1.657
 4191SOL    HW243068   0.279   1.399   1.768
 4192SOL     OW43069   0.267   3.208   1.684
 4192SOL    HW143070   0.171   3.209   1.657
 4192SOL    HW243071   0.279   3.261   1.768
 4193SOL     OW43072   2.129   1.346   1.684
 4193SOL    HW143073   2.033   1.347   1.657
 4193SOL    HW243074   2.141   1.399   1.768
 4194SOL     OW43075   2.129   3.208   1.684
 4194SOL    HW143076   2.033   3.209   1.657
 4194SOL    HW243077   2.141   3.261   1.768
 4195SOL     OW43078   0.928   4.632   1.685
 4195SOL    HW143079   0.991   4.670   1.617
 4195SOL    HW243080   0.968   4.549   1.724
 4196SOL     OW43081   2.790   0.908   1.685
 4196SOL    HW143082   2.853   0.946   1.617
 4196SOL    HW243083   2.830   0.825   1.724
 4197SOL     OW43084   2.790   2.770   1.685
 4197SOL    HW143085   2.853   2.808   1.617
 4197SOL    HW243086   2.830   2.687   1.724
 4198SOL     OW43087   2.790   4.632   1.685
 4198SOL    HW143088   2.853   4.670   1.617
 4198SOL    HW243089   2.830   4.549   1.724
 4199SOL     OW43090   4.652   2.770   1.685
 4199SOL    HW143091   4.715   2.808   1.617
 4199SOL    HW243092   4.692   2.687   1.724
 4200SOL     OW43093   4.652   4.632   1.685
 4200SOL    HW143094   4.715   4.670   1.617
 4200SOL    HW243095   4.692   4.549   1.724
 4201SOL     OW43096   4.652   0.044   1.685
 4201SOL    HW143097   4.715   0.082   1.617
 4201SOL    HW243098   4.692   6.411   1.724
 4202SOL     OW43099   3.099   0.323  11.153
 4202SOL    HW143100   3.164   0.249  11.142
 4202SOL    HW243101   3.119   0.373  11.237
 4203SOL     OW43102   3.099   2.185  11.153
 4203SOL    HW143103   3.164   2.111  11.142
 4203SOL    HW243104   3.119   2.235  11.237
 4204SOL     OW43105   4.961   2.185  11.153
 4204SOL    HW143106   5.026   2.111  11.142
 4204SOL    HW243107   4.981   2.235  11.237
 4205SOL     OW43108   4.961   5.909  11.153
 4205SOL    HW143109   5.026   5.835  11.142
 4205SOL    HW243110   4.981   5.959  11.237
 4206SOL     OW43111   0.051   4.799   1.694
 4206SOL    HW143112   0.150   4.788   1.685
 4206SOL    HW243113   0.011   4.713   1.726
 4207SOL     OW43114   1.913   1.075   1.694
 4207SOL    HW143115   2.012   1.064   1.685
 4207SOL    HW243116   1.873   0.989   1.726
 4208SOL     OW43117   1.913   2.937   1.694
 4208SOL    HW143118   2.012   2.926   1.685
 4208SOL    HW243119   1.873   2.851   1.726
 4209SOL     OW43120   1.913   4.799   1.694
 4209SOL    HW143121   2.012   4.788   1.685
 4209SOL    HW243122   1.873   4.713   1.726
 4210SOL     OW43123   3.775   2.937   1.694
 4210SOL    HW143124   3.874   2.926   1.685
 4210SOL    HW243125   3.735   2.851   1.726
 4211SOL     OW43126   0.782   1.328   1.695
 4211SOL    HW143127   0.736   1.241   1.712
 4211SOL    HW243128   0.873   1.325   1.736
 4212SOL     OW43129   4.506   1.328   1.695
 4212SOL    HW143130   4.460   1.241   1.712
 4212SOL    HW243131   4.597   1.325   1.736
 4213SOL     OW43132   4.506   3.190   1.695
 4213SOL    HW143133   4.460   3.103   1.712
 4213SOL    HW243134   4.597   3.187   1.736
 4214SOL     OW43135   1.588   5.384   1.701
 4214SOL    HW143136   1.677   5.430   1.704
 4214SOL    HW243137   1.567   5.360   1.606
 4215SOL     OW43138   5.312   5.384   1.701
 4215SOL    HW143139   5.401   5.430   1.704
 4215SOL    HW243140   5.291   5.360   1.606
 4216SOL     OW43141   1.314   4.577   1.703
 4216SOL    HW143142   1.228   4.546   1.745
 4216SOL    HW243143   1.310   4.563   1.604
 4217SOL     OW43144   3.176   4.577   1.703
 4217SOL    HW143145   3.090   4.546   1.745
 4217SOL    HW243146   3.172   4.563   1.604
 4218SOL     OW43147   5.038   4.577   1.703
 4218SOL    HW143148   4.952   4.546   1.745
 4218SOL    HW243149   5.034   4.563   1.604
 4219SOL     OW43150   1.653   2.968  11.136
 4219SOL    HW143151   1.739   2.970  11.084
 4219SOL    HW243152   1.667   3.015  11.224
 4220SOL     OW43153   1.653   4.830  11.136
 4220SOL    HW143154   1.739   4.832  11.084
 4220SOL    HW243155   1.667   4.877  11.224
 4221SOL     OW43156   3.515   2.968  11.136
 4221SOL    HW143157   3.601   2.970  11.084
 4221SOL    HW243158   3.529   3.015  11.224
 4222SOL     OW43159   3.515   4.830  11.136
 4222SOL    HW143160   3.601   4.832  11.084
 4222SOL    HW243161   3.529   4.877  11.224
 4223SOL     OW43162   5.377   1.106  11.136
 4223SOL    HW143163   5.463   1.108  11.084
 4223SOL    HW243164   5.391   1.153  11.224
 4224SOL     OW43165   5.377   2.968  11.136
 4224SOL    HW143166   5.463   2.970  11.084
 4224SOL    HW243167   5.391   3.015  11.224
 4225SOL     OW43168   0.084   5.750   1.712
 4225SOL    HW143169   0.067   5.833   1.658
 4225SOL    HW243170   0.174   5.713   1.690
 4226SOL     OW43171   1.946   0.164   1.712
 4226SOL    HW143172   1.929   0.247   1.658
 4226SOL    HW243173   2.036   0.127   1.690
 4227SOL     OW43174   1.946   2.026   1.712
 4227SOL    HW143175   1.929   2.109   1.658
 4227SOL    HW243176   2.036   1.989   1.690
 4228SOL     OW43177   1.946   3.888   1.712
 4228SOL    HW143178   1.929   3.971   1.658
 4228SOL    HW243179   2.036   3.851   1.690
 4229SOL     OW43180   1.053   2.561  11.133
 4229SOL    HW143181   1.079   2.557  11.229
 4229SOL    HW243182   0.968   2.510  11.119
 4230SOL     OW43183   2.915   2.561  11.133
 4230SOL    HW143184   2.941   2.557  11.229
 4230SOL    HW243185   2.830   2.510  11.119
 4231SOL     OW43186   2.915   4.423  11.133
 4231SOL    HW143187   2.941   4.419  11.229
 4231SOL    HW243188   2.830   4.372  11.119
 4232SOL     OW43189   4.777   2.561  11.133
 4232SOL    HW143190   4.803   2.557  11.229
 4232SOL    HW243191   4.692   2.510  11.119
 4233SOL     OW43192   4.777   4.423  11.133
 4233SOL    HW143193   4.803   4.419  11.229
 4233SOL    HW243194   4.692   4.372  11.119
 4234SOL     OW43195   4.777   6.285  11.133
 4234SOL    HW143196   4.803   6.281  11.229
 4234SOL    HW243197   4.692   6.234  11.119
 4235SOL     OW43198   3.274   1.967  11.130
 4235SOL    HW143199   3.250   1.930  11.040
 4235SOL    HW243200   3.373   1.983  11.134
 4236SOL     OW43201   5.136   1.967  11.130
 4236SOL    HW143202   5.112   1.930  11.040
 4236SOL    HW243203   5.235   1.983  11.134
 4237SOL     OW43204   2.338   3.603   1.717
 4237SOL    HW143205   2.371   3.642   1.803
 4237SOL    HW243206   2.414   3.596   1.652
 4238SOL     OW43207   2.338   5.465   1.717
 4238SOL    HW143208   2.371   5.504   1.803
 4238SOL    HW243209   2.414   5.458   1.652
 4239SOL     OW43210   4.200   5.465   1.717
 4239SOL    HW143211   4.233   5.504   1.803
 4239SOL    HW243212   4.276   5.458   1.652
 4240SOL     OW43213   6.062   1.741   1.717
 4240SOL    HW143214   6.095   1.780   1.803
 4240SOL    HW243215   6.138   1.734   1.652
 4241SOL     OW43216   0.827   2.432   1.719
 4241SOL    HW143217   0.834   2.343   1.673
 4241SOL    HW243218   0.733   2.466   1.711
 4242SOL     OW43219   0.827   4.294   1.719
 4242SOL    HW143220   0.834   4.205   1.673
 4242SOL    HW243221   0.733   4.328   1.711
 4243SOL     OW43222   2.689   4.294   1.719
 4243SOL    HW143223   2.696   4.205   1.673
 4243SOL    HW243224   2.595   4.328   1.711
 4244SOL     OW43225   4.551   0.570   1.719
 4244SOL    HW143226   4.558   0.481   1.673
 4244SOL    HW243227   4.457   0.604   1.711
 4245SOL     OW43228   4.551   2.432   1.719
 4245SOL    HW143229   4.558   2.343   1.673
 4245SOL    HW243230   4.457   2.466   1.711
 4246SOL     OW43231   2.401   3.978   1.722
 4246SOL    HW143232   2.428   3.919   1.647
 4246SOL    HW243233   2.401   4.073   1.691
 4247SOL     OW43234   4.263   0.254   1.722
 4247SOL    HW143235   4.290   0.195   1.647
 4247SOL    HW243236   4.263   0.349   1.691
 4248SOL     OW43237   2.749   5.368   1.731
 4248SOL    HW143238   2.672   5.333   1.677
 4248SOL    HW243239   2.717   5.439   1.793
 4249SOL     OW43240   4.611   5.368   1.731
 4249SOL    HW143241   4.534   5.333   1.677
 4249SOL    HW243242   4.579   5.439   1.793
 4250SOL     OW43243   1.854   1.765   1.753
 4250SOL    HW143244   1.908   1.736   1.833
 4250SOL    HW243245   1.884   1.855   1.724
 4251SOL     OW43246   1.854   3.627   1.753
 4251SOL    HW143247   1.908   3.598   1.833
 4251SOL    HW243248   1.884   3.717   1.724
 4252SOL     OW43249   1.854   5.489   1.753
 4252SOL    HW143250   1.908   5.460   1.833
 4252SOL    HW243251   1.884   5.579   1.724
 4253SOL     OW43252   1.264   1.346  11.092
 4253SOL    HW143253   1.314   1.423  11.132
 4253SOL    HW243254   1.169   1.348  11.124
 4254SOL     OW43255   1.264   3.208  11.092
 4254SOL    HW143256   1.314   3.285  11.132
 4254SOL    HW243257   1.169   3.210  11.124
 4255SOL     OW43258   1.264   5.070  11.092
 4255SOL    HW143259   1.314   5.147  11.132
 4255SOL    HW243260   1.169   5.072  11.124
 4256SOL     OW43261   3.126   1.346  11.092
 4256SOL    HW143262   3.176   1.423  11.132
 4256SOL    HW243263   3.031   1.348  11.124
 4257SOL     OW43264   0.717   4.772   1.762
 4257SOL    HW143265   0.703   4.779   1.861
 4257SOL    HW243266   0.801   4.721   1.744
 4258SOL     OW43267   2.579   1.048   1.762
 4258SOL    HW143268   2.565   1.055   1.861
 4258SOL    HW243269   2.663   0.997   1.744
 4259SOL     OW43270   2.579   2.910   1.762
 4259SOL    HW143271   2.565   2.917   1.861
 4259SOL    HW243272   2.663   2.859   1.744
 4260SOL     OW43273   4.441   2.910   1.762
 4260SOL    HW143274   4.427   2.917   1.861
 4260SOL    HW243275   4.525   2.859   1.744
 4261SOL     OW43276   4.441   0.184   1.762
 4261SOL    HW143277   4.427   0.191   1.861
 4261SOL    HW243278   4.525   0.133   1.744
 4262SOL     OW43279   3.731   4.555  11.081
 4262SOL    HW143280   3.773   4.491  11.145
 4262SOL    HW243281   3.693   4.504  11.003
 4263SOL     OW43282   5.593   0.831  11.081
 4263SOL    HW143283   5.635   0.767  11.145
 4263SOL    HW243284   5.555   0.780  11.003
 4264SOL     OW43285   1.634   0.365  11.078
 4264SOL    HW143286   1.636   0.289  11.142
 4264SOL    HW243287   1.586   0.442  11.118
 4265SOL     OW43288   1.634   5.951  11.078
 4265SOL    HW143289   1.636   5.875  11.142
 4265SOL    HW243290   1.586   6.028  11.118
 4266SOL     OW43291   3.496   5.951  11.078
 4266SOL    HW143292   3.498   5.875  11.142
 4266SOL    HW243293   3.448   6.028  11.118
 4267SOL     OW43294   5.358   5.951  11.078
 4267SOL    HW143295   5.360   5.875  11.142
 4267SOL    HW243296   5.310   6.028  11.118
 4268SOL     OW43297   3.496   2.227   1.768
 4268SOL    HW143298   3.498   2.151   1.832
 4268SOL    HW243299   3.448   2.304   1.808
 4269SOL     OW43300   5.358   5.951   1.768
 4269SOL    HW143301   5.360   5.875   1.832
 4269SOL    HW243302   5.310   6.028   1.808
 4270SOL     OW43303   1.869   0.831   1.771
 4270SOL    HW143304   1.911   0.767   1.835
 4270SOL    HW243305   1.831   0.780   1.693
 4271SOL     OW43306   1.869   6.417   1.771
 4271SOL    HW143307   1.911   6.353   1.835
 4271SOL    HW243308   1.831   6.366   1.693
 4272SOL     OW43309   3.731   2.693   1.771
 4272SOL    HW143310   3.773   2.629   1.835
 4272SOL    HW243311   3.693   2.642   1.693
 4273SOL     OW43312   3.731   6.417   1.771
 4273SOL    HW143313   3.773   6.353   1.835
 4273SOL    HW243314   3.693   6.366   1.693
 4274SOL     OW43315   5.593   0.831   1.771
 4274SOL    HW143316   5.635   0.767   1.835
 4274SOL    HW243317   5.555   0.780   1.693
 4275SOL     OW43318   0.717   1.048  11.072
 4275SOL    HW143319   0.703   1.055  11.171
 4275SOL    HW243320   0.801   0.997  11.054
 4276SOL     OW43321   2.579   0.184  11.072
 4276SOL    HW143322   2.565   0.191  11.171
 4276SOL    HW243323   2.663   0.133  11.054
 4277SOL     OW43324   4.441   0.184  11.072
 4277SOL    HW143325   4.427   0.191  11.171
 4277SOL    HW243326   4.525   0.133  11.054
 4278SOL     OW43327   1.264   1.346   1.782
 4278SOL    HW143328   1.314   1.423   1.822
 4278SOL    HW243329   1.169   1.348   1.814
 4279SOL     OW43330   3.126   3.208   1.782
 4279SOL    HW143331   3.176   3.285   1.822
 4279SOL    HW243332   3.031   3.210   1.814
 4280SOL     OW43333   1.854   3.627  11.063
 4280SOL    HW143334   1.908   3.598  11.143
 4280SOL    HW243335   1.884   3.717  11.034
 4281SOL     OW43336   1.854   5.489  11.063
 4281SOL    HW143337   1.908   5.460  11.143
 4281SOL    HW243338   1.884   5.579  11.034
 4282SOL     OW43339   3.716   1.765  11.063
 4282SOL    HW143340   3.770   1.736  11.143
 4282SOL    HW243341   3.746   1.855  11.034
 4283SOL     OW43342   5.578   3.627  11.063
 4283SOL    HW143343   5.632   3.598  11.143
 4283SOL    HW243344   5.608   3.717  11.034
 4284SOL     OW43345   0.887   3.506  11.041
 4284SOL    HW143346   0.810   3.471  10.987
 4284SOL    HW243347   0.855   3.577  11.103
 4285SOL     OW43348   4.611   3.506  11.041
 4285SOL    HW143349   4.534   3.471  10.987
 4285SOL    HW243350   4.579   3.577  11.103
 4286SOL     OW43351   4.611   5.368  11.041
 4286SOL    HW143352   4.534   5.333  10.987
 4286SOL    HW243353   4.579   5.439  11.103
 4287SOL     OW43354   4.263   0.254  11.032
 4287SOL    HW143355   4.290   0.195  10.957
 4287SOL    HW243356   4.263   0.349  11.001
 4288SOL     OW43357   6.125   0.254  11.032
 4288SOL    HW143358   6.152   0.195  10.957
 4288SOL    HW243359   6.125   0.349  11.001
 4289SOL     OW43360   0.827   4.294  11.029
 4289SOL    HW143361   0.834   4.205  10.983
 4289SOL    HW243362   0.733   4.328  11.021
 4290SOL     OW43363   0.827   6.156  11.029
 4290SOL    HW143364   0.834   6.067  10.983
 4290SOL    HW243365   0.733   6.190  11.021
 4291SOL     OW43366   6.413   0.570  11.029
 4291SOL    HW143367   6.420   0.481  10.983
 4291SOL    HW243368   6.319   0.604  11.021
 4292SOL     OW43369   6.413   4.294  11.029
 4292SOL    HW143370   6.420   4.205  10.983
 4292SOL    HW243371   6.319   4.328  11.021
 4293SOL     OW43372   6.413   6.156  11.029
 4293SOL    HW143373   6.420   6.067  10.983
 4293SOL    HW243374   6.319   6.190  11.021
 4294SOL     OW43375   2.338   1.741  11.027
 4294SOL    HW143376   2.371   1.780  11.113
 4294SOL    HW243377   2.414   1.734  10.962
 4295SOL     OW43378   4.200   1.741  11.027
 4295SOL    HW143379   4.233   1.780  11.113
 4295SOL    HW243380   4.276   1.734  10.962
 4296SOL     OW43381   1.412   3.829   1.820
 4296SOL    HW143382   1.388   3.792   1.730
 4296SOL    HW243383   1.511   3.845   1.824
 4297SOL     OW43384   1.412   5.691   1.820
 4297SOL    HW143385   1.388   5.654   1.730
 4297SOL    HW243386   1.511   5.707   1.824
 4298SOL     OW43387   5.136   0.105   1.820
 4298SOL    HW143388   5.112   0.068   1.730
 4298SOL    HW243389   5.235   0.121   1.824
 4299SOL     OW43390   1.053   6.285   1.823
 4299SOL    HW143391   1.079   6.281   1.919
 4299SOL    HW243392   0.968   6.234   1.809
 4300SOL     OW43393   2.915   0.699   1.823
 4300SOL    HW143394   2.941   0.695   1.919
 4300SOL    HW243395   2.830   0.648   1.809
 4301SOL     OW43396   2.915   2.561   1.823
 4301SOL    HW143397   2.941   2.557   1.919
 4301SOL    HW243398   2.830   2.510   1.809
 4302SOL     OW43399   2.915   4.423   1.823
 4302SOL    HW143400   2.941   4.419   1.919
 4302SOL    HW243401   2.830   4.372   1.809
 4303SOL     OW43402   0.084   0.164  11.022
 4303SOL    HW143403   0.067   0.247  10.968
 4303SOL    HW243404   0.174   0.127  11.000
 4304SOL     OW43405   0.084   2.026  11.022
 4304SOL    HW143406   0.067   2.109  10.968
 4304SOL    HW243407   0.174   1.989  11.000
 4305SOL     OW43408   3.808   0.164  11.022
 4305SOL    HW143409   3.791   0.247  10.968
 4305SOL    HW243410   3.898   0.127  11.000
 4306SOL     OW43411   3.808   2.026  11.022
 4306SOL    HW143412   3.791   2.109  10.968
 4306SOL    HW243413   3.898   1.989  11.000
 4307SOL     OW43414   1.653   4.830   1.826
 4307SOL    HW143415   1.739   4.832   1.774
 4307SOL    HW243416   1.667   4.877   1.914
 4308SOL     OW43417   3.515   4.830   1.826
 4308SOL    HW143418   3.601   4.832   1.774
 4308SOL    HW243419   3.529   4.877   1.914
 4309SOL     OW43420   5.377   1.106   1.826
 4309SOL    HW143421   5.463   1.108   1.774
 4309SOL    HW243422   5.391   1.153   1.914
 4310SOL     OW43423   3.176   0.853  11.013
 4310SOL    HW143424   3.090   0.822  11.055
 4310SOL    HW243425   3.172   0.839  10.914
 4311SOL     OW43426   3.176   2.715  11.013
 4311SOL    HW143427   3.090   2.684  11.055
 4311SOL    HW243428   3.172   2.701  10.914
 4312SOL     OW43429   5.038   2.715  11.013
 4312SOL    HW143430   4.952   2.684  11.055
 4312SOL    HW243431   5.034   2.701  10.914
 4313SOL     OW43432   1.588   3.522  11.011
 4313SOL    HW143433   1.677   3.568  11.014
 4313SOL    HW243434   1.567   3.498  10.916
 4314SOL     OW43435   1.588   5.384  11.011
 4314SOL    HW143436   1.677   5.430  11.014
 4314SOL    HW243437   1.567   5.360  10.916
 4315SOL     OW43438   0.782   5.052  11.005
 4315SOL    HW143439   0.736   4.965  11.022
 4315SOL    HW243440   0.873   5.049  11.046
 4316SOL     OW43441   4.506   3.190  11.005
 4316SOL    HW143442   4.460   3.103  11.022
 4316SOL    HW243443   4.597   3.187  11.046
 4317SOL     OW43444   3.775   4.799  11.004
 4317SOL    HW143445   3.874   4.788  10.995
 4317SOL    HW243446   3.735   4.713  11.036
 4318SOL     OW43447   5.637   2.937  11.004
 4318SOL    HW143448   5.736   2.926  10.995
 4318SOL    HW243449   5.597   2.851  11.036
 4319SOL     OW43450   3.099   2.185   1.843
 4319SOL    HW143451   3.164   2.111   1.832
 4319SOL    HW243452   3.119   2.235   1.927
 4320SOL     OW43453   4.961   2.185   1.843
 4320SOL    HW143454   5.026   2.111   1.832
 4320SOL    HW243455   4.981   2.235   1.927
 4321SOL     OW43456   4.652   0.908  10.995
 4321SOL    HW143457   4.715   0.946  10.927
 4321SOL    HW243458   4.692   0.825  11.034
 4322SOL     OW43459   4.652   2.770  10.995
 4322SOL    HW143460   4.715   2.808  10.927
 4322SOL    HW243461   4.692   2.687  11.034
 4323SOL     OW43462   4.652   4.632  10.995
 4323SOL    HW143463   4.715   4.670  10.927
 4323SOL    HW243464   4.692   4.549  11.034
 4324SOL     OW43465   4.652   0.044  10.995
 4324SOL    HW143466   4.715   0.082  10.927
 4324SOL    HW243467   4.692   6.411  11.034
 4325SOL     OW43468   0.267   5.070  10.994
 4325SOL    HW143469   0.171   5.071  10.967
 4325SOL    HW243470   0.279   5.123  11.078
 4326SOL     OW43471   2.129   5.070  10.994
 4326SOL    HW143472   2.033   5.071  10.967
 4326SOL    HW243473   2.141   5.123  11.078
 4327SOL     OW43474   3.991   1.346  10.994
 4327SOL    HW143475   3.895   1.347  10.967
 4327SOL    HW243476   4.003   1.399  11.078
 4328SOL     OW43477   5.853   5.070  10.994
 4328SOL    HW143478   5.757   5.071  10.967
 4328SOL    HW243479   5.865   5.123  11.078
 4329SOL     OW43480   3.456   4.361   1.866
 4329SOL    HW143481   3.425   4.422   1.939
 4329SOL    HW243482   3.506   4.413   1.797
 4330SOL     OW43483   5.318   0.637   1.866
 4330SOL    HW143484   5.287   0.698   1.939
 4330SOL    HW243485   5.368   0.689   1.797
 4331SOL     OW43486   5.318   4.361   1.866
 4331SOL    HW143487   5.287   4.422   1.939
 4331SOL    HW243488   5.368   4.413   1.797
 4332SOL     OW43489   3.083   2.385  10.979
 4332SOL    HW143490   3.096   2.301  11.033
 4332SOL    HW243491   3.054   2.459  11.039
 4333SOL     OW43492   3.083   6.109  10.979
 4333SOL    HW143493   3.096   6.025  11.033
 4333SOL    HW243494   3.054   6.183  11.039
 4334SOL     OW43495   4.945   2.385  10.979
 4334SOL    HW143496   4.958   2.301  11.033
 4334SOL    HW243497   4.916   2.459  11.039
 4335SOL     OW43498   4.945   6.109  10.979
 4335SOL    HW143499   4.958   6.025  11.033
 4335SOL    HW243500   4.916   6.183  11.039
 4336SOL     OW43501   1.400   1.571   1.871
 4336SOL    HW143502   1.467   1.583   1.797
 4336SOL    HW243503   1.360   1.660   1.894
 4337SOL     OW43504   2.882   3.316   1.871
 4337SOL    HW143505   2.836   3.388   1.819
 4337SOL    HW243506   2.878   3.336   1.969
 4338SOL     OW43507   0.610   4.451  10.974
 4338SOL    HW143508   0.634   4.520  10.906
 4338SOL    HW243509   0.532   4.484  11.028
 4339SOL     OW43510   6.196   0.727  10.974
 4339SOL    HW143511   6.220   0.796  10.906
 4339SOL    HW243512   6.118   0.760  11.028
 4340SOL     OW43513   0.394   0.698   1.874
 4340SOL    HW143514   0.439   0.608   1.871
 4340SOL    HW243515   0.300   0.687   1.907
 4341SOL     OW43516   0.394   2.560   1.874
 4341SOL    HW143517   0.439   2.470   1.871
 4341SOL    HW243518   0.300   2.549   1.907
 4342SOL     OW43519   0.394   6.284   1.874
 4342SOL    HW143520   0.439   6.194   1.871
 4342SOL    HW243521   0.300   6.273   1.907
 4343SOL     OW43522   2.256   0.698   1.874
 4343SOL    HW143523   2.301   0.608   1.871
 4343SOL    HW243524   2.162   0.687   1.907
 4344SOL     OW43525   2.809   2.096   1.874
 4344SOL    HW143526   2.761   2.137   1.796
 4344SOL    HW243527   2.908   2.094   1.855
 4345SOL     OW43528   4.118   0.698   1.874
 4345SOL    HW143529   4.163   0.608   1.871
 4345SOL    HW243530   4.024   0.687   1.907
 4346SOL     OW43531   4.118   6.284   1.874
 4346SOL    HW143532   4.163   6.194   1.871
 4346SOL    HW243533   4.024   6.273   1.907
 4347SOL     OW43534   5.980   0.698   1.874
 4347SOL    HW143535   6.025   0.608   1.871
 4347SOL    HW243536   5.886   0.687   1.907
 4348SOL     OW43537   0.243   3.573   1.877
 4348SOL    HW143538   0.277   3.650   1.931
 4348SOL    HW243539   0.287   3.573   1.787
 4349SOL     OW43540   2.105   3.573   1.877
 4349SOL    HW143541   2.139   3.650   1.931
 4349SOL    HW243542   2.149   3.573   1.787
 4350SOL     OW43543   2.105   5.435   1.877
 4350SOL    HW143544   2.139   5.512   1.931
 4350SOL    HW243545   2.149   5.435   1.787
 4351SOL     OW43546   0.379   2.960   1.895
 4351SOL    HW143547   0.372   3.043   1.839
 4351SOL    HW243548   0.383   2.880   1.835
 4352SOL     OW43549   2.241   2.960   1.895
 4352SOL    HW143550   2.234   3.043   1.839
 4352SOL    HW243551   2.245   2.880   1.835
 4353SOL     OW43552   2.241   4.822   1.895
 4353SOL    HW143553   2.234   4.905   1.839
 4353SOL    HW243554   2.245   4.742   1.835
 4354SOL     OW43555   5.965   4.822   1.895
 4354SOL    HW143556   5.958   4.905   1.839
 4354SOL    HW243557   5.969   4.742   1.835
 4355SOL     OW43558   2.683   5.588   1.896
 4355SOL    HW143559   2.723   5.679   1.887
 4355SOL    HW243560   2.583   5.596   1.902
 4356SOL     OW43561   4.545   5.588   1.896
 4356SOL    HW143562   4.585   5.679   1.887
 4356SOL    HW243563   4.445   5.596   1.902
 4357SOL     OW43564   2.195   0.941  10.946
 4357SOL    HW143565   2.277   0.980  10.904
 4357SOL    HW243566   2.168   0.859  10.897
 4358SOL     OW43567   2.195   2.803  10.946
 4358SOL    HW143568   2.277   2.842  10.904
 4358SOL    HW243569   2.168   2.721  10.897
 4359SOL     OW43570   4.057   4.665  10.946
 4359SOL    HW143571   4.139   4.704  10.904
 4359SOL    HW243572   4.030   4.583  10.897
 4360SOL     OW43573   4.847   3.636  10.941
 4360SOL    HW143574   4.787   3.574  10.991
 4360SOL    HW243575   4.878   3.592  10.856
 4361SOL     OW43576   4.847   5.498  10.941
 4361SOL    HW143577   4.787   5.436  10.991
 4361SOL    HW243578   4.878   5.454  10.856
 4362SOL     OW43579   2.413   3.786   1.906
 4362SOL    HW143580   2.332   3.787   1.964
 4362SOL    HW243581   2.416   3.869   1.851
 4363SOL     OW43582   2.413   5.648   1.906
 4363SOL    HW143583   2.332   5.649   1.964
 4363SOL    HW243584   2.416   5.731   1.851
 4364SOL     OW43585   4.275   3.786   1.906
 4364SOL    HW143586   4.194   3.787   1.964
 4364SOL    HW243587   4.278   3.869   1.851
 4365SOL     OW43588   4.275   5.648   1.906
 4365SOL    HW143589   4.194   5.649   1.964
 4365SOL    HW243590   4.278   5.731   1.851
 4366SOL     OW43591   0.440   2.284   1.914
 4366SOL    HW143592   0.470   2.212   1.852
 4366SOL    HW243593   0.401   2.244   1.997
 4367SOL     OW43594   2.302   0.422   1.914
 4367SOL    HW143595   2.332   0.350   1.852
 4367SOL    HW243596   2.263   0.382   1.997
 4368SOL     OW43597   1.738   3.857   1.917
 4368SOL    HW143598   1.811   3.840   1.850
 4368SOL    HW243599   1.707   3.770   1.955
 4369SOL     OW43600   3.600   0.133   1.917
 4369SOL    HW143601   3.673   0.116   1.850
 4369SOL    HW243602   3.569   0.046   1.955
 4370SOL     OW43603   0.242   1.432   1.932
 4370SOL    HW143604   0.216   1.528   1.932
 4370SOL    HW243605   0.171   1.378   1.977
 4371SOL     OW43606   2.104   3.294   1.932
 4371SOL    HW143607   2.078   3.390   1.932
 4371SOL    HW243608   2.033   3.240   1.977
 4372SOL     OW43609   1.374   4.866   1.939
 4372SOL    HW143610   1.457   4.837   1.891
 4372SOL    HW243611   1.325   4.933   1.883
 4373SOL     OW43612   3.236   4.866   1.939
 4373SOL    HW143613   3.319   4.837   1.891
 4373SOL    HW243614   3.187   4.933   1.883
 4374SOL     OW43615   1.882   5.048  10.904
 4374SOL    HW143616   1.789   5.069  10.873
 4374SOL    HW243617   1.892   4.949  10.917
 4375SOL     OW43618   5.606   1.324  10.904
 4375SOL    HW143619   5.513   1.345  10.873
 4375SOL    HW243620   5.616   1.225  10.917
 4376SOL     OW43621   0.877   4.070  10.899
 4376SOL    HW143622   0.936   4.133  10.850
 4376SOL    HW243623   0.896   3.976  10.870
 4377SOL     OW43624   4.601   2.208  10.899
 4377SOL    HW143625   4.660   2.271  10.850
 4377SOL    HW243626   4.620   2.114  10.870
 4378SOL     OW43627   5.261   2.859  10.894
 4378SOL    HW143628   5.198   2.783  10.907
 4378SOL    HW243629   5.309   2.877  10.980
 4379SOL     OW43630   0.134   4.365   1.957
 4379SOL    HW143631   0.089   4.277   1.974
 4379SOL    HW243632   0.133   4.419   2.041
 4380SOL     OW43633   1.996   0.641   1.957
 4380SOL    HW143634   1.951   0.553   1.974
 4380SOL    HW243635   1.995   0.695   2.041
 4381SOL     OW43636   1.996   2.503   1.957
 4381SOL    HW143637   1.951   2.415   1.974
 4381SOL    HW243638   1.995   2.557   2.041
 4382SOL     OW43639   1.996   6.227   1.957
 4382SOL    HW143640   1.951   6.139   1.974
 4382SOL    HW243641   1.995   6.281   2.041
 4383SOL     OW43642   3.858   6.227   1.957
 4383SOL    HW143643   3.813   6.139   1.974
 4383SOL    HW243644   3.857   6.281   2.041
 4384SOL     OW43645   5.403   5.436   1.966
 4384SOL    HW143646   5.362   5.413   1.878
 4384SOL    HW243647   5.385   5.362   2.031
 4385SOL     OW43648   0.500   1.383  10.878
 4385SOL    HW143649   0.413   1.368  10.925
 4385SOL    HW243650   0.483   1.409  10.783
 4386SOL     OW43651   0.500   5.107  10.878
 4386SOL    HW143652   0.413   5.092  10.925
 4386SOL    HW243653   0.483   5.133  10.783
 4387SOL     OW43654   4.224   1.383  10.878
 4387SOL    HW143655   4.137   1.368  10.925
 4387SOL    HW243656   4.207   1.409  10.783
 4388SOL     OW43657   3.226   1.912  10.872
 4388SOL    HW143658   3.261   1.871  10.788
 4388SOL    HW243659   3.136   1.874  10.892
 4389SOL     OW43660   5.088   3.774  10.872
 4389SOL    HW143661   5.123   3.733  10.788
 4389SOL    HW243662   4.998   3.736  10.892
 4390SOL     OW43663   5.007   1.795   1.985
 4390SOL    HW143664   5.051   1.859   1.921
 4390SOL    HW243665   4.957   1.847   2.055
 4391SOL     OW43666   5.007   5.519   1.985
 4391SOL    HW143667   5.051   5.583   1.921
 4391SOL    HW243668   4.957   5.571   2.055
 4392SOL     OW43669   4.408   1.614  10.858
 4392SOL    HW143670   4.417   1.624  10.759
 4392SOL    HW243671   4.368   1.525  10.879
 4393SOL     OW43672   4.408   5.338  10.858
 4393SOL    HW143673   4.417   5.348  10.759
 4393SOL    HW243674   4.368   5.249  10.879
 4394SOL     OW43675   6.270   1.614  10.858
 4394SOL    HW143676   6.279   1.624  10.759
 4394SOL    HW243677   6.230   1.525  10.879
 4395SOL     OW43678   6.270   5.338  10.858
 4395SOL    HW143679   6.279   5.348  10.759
 4395SOL    HW243680   6.230   5.249  10.879
 4396SOL     OW43681   1.701   0.920   2.006
 4396SOL    HW143682   1.796   0.891   2.014
 4396SOL    HW243683   1.693   0.985   1.931
 4397SOL     OW43684   1.701   4.644   2.006
 4397SOL    HW143685   1.796   4.615   2.014
 4397SOL    HW243686   1.693   4.709   1.931
 4398SOL     OW43687   3.563   4.644   2.006
 4398SOL    HW143688   3.658   4.615   2.014
 4398SOL    HW243689   3.555   4.709   1.931
 4399SOL     OW43690   5.425   0.920   2.006
 4399SOL    HW143691   5.520   0.891   2.014
 4399SOL    HW243692   5.417   0.985   1.931
 4400SOL     OW43693   0.051   0.084  10.837
 4400SOL    HW143694   0.102   0.085  10.751
 4400SOL    HW243695   0.107   0.042  10.908
 4401SOL     OW43696   1.552   0.272  10.829
 4401SOL    HW143697   1.491   0.197  10.852
 4401SOL    HW243698   1.574   0.324  10.912
 4402SOL     OW43699   1.552   5.858  10.829
 4402SOL    HW143700   1.491   5.783  10.852
 4402SOL    HW243701   1.574   5.910  10.912
 4403SOL     OW43702   3.414   2.134  10.829
 4403SOL    HW143703   3.353   2.059  10.852
 4403SOL    HW243704   3.436   2.186  10.912
 4404SOL     OW43705   2.480   4.686  10.827
 4404SOL    HW143706   2.487   4.770  10.773
 4404SOL    HW243707   2.526   4.699  10.915
 4405SOL     OW43708   1.195   1.333  10.823
 4405SOL    HW143709   1.096   1.322  10.825
 4405SOL    HW243710   1.229   1.348  10.916
 4406SOL     OW43711   0.039   3.456  10.821
 4406SOL    HW143712   0.020   3.360  10.842
 4406SOL    HW243713   0.006   3.514  10.896
 4407SOL     OW43714   0.626   1.982  10.821
 4407SOL    HW143715   0.724   1.960  10.828
 4407SOL    HW243716   0.595   1.965  10.728
 4408SOL     OW43717   0.039   5.318  10.821
 4408SOL    HW143718   0.020   5.222  10.842
 4408SOL    HW243719   0.006   5.376  10.896
 4409SOL     OW43720   0.626   5.706  10.821
 4409SOL    HW143721   0.724   5.684  10.828
 4409SOL    HW243722   0.595   5.689  10.728
 4410SOL     OW43723   1.901   3.456  10.821
 4410SOL    HW143724   1.882   3.360  10.842
 4410SOL    HW243725   1.868   3.514  10.896
 4411SOL     OW43726   1.901   5.318  10.821
 4411SOL    HW143727   1.882   5.222  10.842
 4411SOL    HW243728   1.868   5.376  10.896
 4412SOL     OW43729   4.350   0.120  10.821
 4412SOL    HW143730   4.448   0.098  10.828
 4412SOL    HW243731   4.319   0.103  10.728
 4413SOL     OW43732   6.212   3.844  10.821
 4413SOL    HW143733   6.310   3.822  10.828
 4413SOL    HW243734   6.181   3.827  10.728
 4414SOL     OW43735   0.242   0.626  10.817
 4414SOL    HW143736   0.149   0.624  10.854
 4414SOL    HW243737   0.243   0.587  10.725
 4415SOL     OW43738   0.242   2.488  10.817
 4415SOL    HW143739   0.149   2.486  10.854
 4415SOL    HW243740   0.243   2.449  10.725
 4416SOL     OW43741   2.104   4.350  10.817
 4416SOL    HW143742   2.011   4.348  10.854
 4416SOL    HW243743   2.105   4.311  10.725
 4417SOL     OW43744   3.966   4.350  10.817
 4417SOL    HW143745   3.873   4.348  10.854
 4417SOL    HW243746   3.967   4.311  10.725
 4418SOL     OW43747   5.828   2.488  10.817
 4418SOL    HW143748   5.735   2.486  10.854
 4418SOL    HW243749   5.829   2.449  10.725
 4419SOL     OW43750   0.878   0.452   2.036
 4419SOL    HW143751   0.846   0.524   1.974
 4419SOL    HW243752   0.902   0.371   1.983
 4420SOL     OW43753   2.740   4.176   2.036
 4420SOL    HW143754   2.708   4.248   1.974
 4420SOL    HW243755   2.764   4.095   1.983
 4421SOL     OW43756   0.031   2.228   2.041
 4421SOL    HW143757   6.399   2.271   2.080
 4421SOL    HW243758   0.003   2.155   1.978
 4422SOL     OW43759   5.617   2.228   2.041
 4422SOL    HW143760   5.535   2.271   2.080
 4422SOL    HW243761   5.589   2.155   1.978
 4423SOL     OW43762   0.606   2.605   2.046
 4423SOL    HW143763   0.656   2.690   2.027
 4423SOL    HW243764   0.518   2.607   1.998
 4424SOL     OW43765   0.606   6.329   2.046
 4424SOL    HW143766   0.656   6.414   2.027
 4424SOL    HW243767   0.518   6.331   1.998
 4425SOL     OW43768   2.468   6.329   2.046
 4425SOL    HW143769   2.518   6.414   2.027
 4425SOL    HW243770   2.380   6.331   1.998
 4426SOL     OW43771   4.330   0.743   2.046
 4426SOL    HW143772   4.380   0.828   2.027
 4426SOL    HW243773   4.242   0.745   1.998
 4427SOL     OW43774   4.330   2.605   2.046
 4427SOL    HW143775   4.380   2.690   2.027
 4427SOL    HW243776   4.242   2.607   1.998
 4428SOL     OW43777   4.330   4.467   2.046
 4428SOL    HW143778   4.380   4.552   2.027
 4428SOL    HW243779   4.242   4.469   1.998
 4429SOL     OW43780   4.330   6.329   2.046
 4429SOL    HW143781   4.380   6.414   2.027
 4429SOL    HW243782   4.242   6.331   1.998
 4430SOL     OW43783   6.192   0.743   2.046
 4430SOL    HW143784   6.242   0.828   2.027
 4430SOL    HW243785   6.104   0.745   1.998
 4431SOL     OW43786   6.192   6.329   2.046
 4431SOL    HW143787   6.242   6.414   2.027
 4431SOL    HW243788   6.104   6.331   1.998
 4432SOL     OW43789   1.953   3.100   2.047
 4432SOL    HW143790   1.952   3.053   2.135
 4432SOL    HW243791   2.035   3.072   1.996
 4433SOL     OW43792   3.815   3.100   2.047
 4433SOL    HW143793   3.814   3.053   2.135
 4433SOL    HW243794   3.897   3.072   1.996
 4434SOL     OW43795   5.677   3.100   2.047
 4434SOL    HW143796   5.676   3.053   2.135
 4434SOL    HW243797   5.759   3.072   1.996
 4435SOL     OW43798   3.538   5.002   2.051
 4435SOL    HW143799   3.637   5.010   2.065
 4435SOL    HW243800   3.493   5.086   2.082
 4436SOL     OW43801   2.957   0.982  10.791
 4436SOL    HW143802   2.934   1.035  10.709
 4436SOL    HW243803   3.038   0.926  10.772
 4437SOL     OW43804   4.819   0.982  10.791
 4437SOL    HW143805   4.796   1.035  10.709
 4437SOL    HW243806   4.900   0.926  10.772
 4438SOL     OW43807   4.819   2.844  10.791
 4438SOL    HW143808   4.796   2.897  10.709
 4438SOL    HW243809   4.900   2.788  10.772
 4439SOL     OW43810   0.697   4.734   2.059
 4439SOL    HW143811   0.766   4.718   2.129
 4439SOL    HW243812   0.624   4.791   2.097
 4440SOL     OW43813   2.559   1.010   2.059
 4440SOL    HW143814   2.628   0.994   2.129
 4440SOL    HW243815   2.486   1.067   2.097
 4441SOL     OW43816   2.559   2.872   2.059
 4441SOL    HW143817   2.628   2.856   2.129
 4441SOL    HW243818   2.486   2.929   2.097
 4442SOL     OW43819   2.559   0.146   2.059
 4442SOL    HW143820   2.628   0.130   2.129
 4442SOL    HW243821   2.486   0.203   2.097
 4443SOL     OW43822   4.421   2.872   2.059
 4443SOL    HW143823   4.490   2.856   2.129
 4443SOL    HW243824   4.348   2.929   2.097
 4444SOL     OW43825   6.283   2.872   2.059
 4444SOL    HW143826   6.352   2.856   2.129
 4444SOL    HW243827   6.210   2.929   2.097
 4445SOL     OW43828   6.283   4.734   2.059
 4445SOL    HW143829   6.352   4.718   2.129
 4445SOL    HW243830   6.210   4.791   2.097
 4446SOL     OW43831   1.644   3.237  10.785
 4446SOL    HW143832   1.612   3.331  10.775
 4446SOL    HW243833   1.568   3.174  10.773
 4447SOL     OW43834   1.644   5.099  10.785
 4447SOL    HW143835   1.612   5.193  10.775
 4447SOL    HW243836   1.568   5.036  10.773
 4448SOL     OW43837   5.368   1.375  10.785
 4448SOL    HW143838   5.336   1.469  10.775
 4448SOL    HW243839   5.292   1.312  10.773
 4449SOL     OW43840   3.264   6.159  10.782
 4449SOL    HW143841   3.210   6.138  10.863
 4449SOL    HW243842   3.355   6.118  10.791
 4450SOL     OW43843   5.126   0.573  10.782
 4450SOL    HW143844   5.072   0.552  10.863
 4450SOL    HW243845   5.217   0.532  10.791
 4451SOL     OW43846   1.292   4.649   2.066
 4451SOL    HW143847   1.352   4.568   2.068
 4451SOL    HW243848   1.332   4.718   2.006
 4452SOL     OW43849   3.154   4.649   2.066
 4452SOL    HW143850   3.214   4.568   2.068
 4452SOL    HW243851   3.194   4.718   2.006
 4453SOL     OW43852   5.016   0.925   2.066
 4453SOL    HW143853   5.076   0.844   2.068
 4453SOL    HW243854   5.056   0.994   2.006
 4454SOL     OW43855   5.016   4.649   2.066
 4454SOL    HW143856   5.076   4.568   2.068
 4454SOL    HW243857   5.056   4.718   2.006
 4455SOL     OW43858   2.686   5.308   2.081
 4455SOL    HW143859   2.718   5.318   1.987
 4455SOL    HW243860   2.607   5.246   2.083
 4456SOL     OW43861   4.548   3.446   2.081
 4456SOL    HW143862   4.580   3.456   1.987
 4456SOL    HW243863   4.469   3.384   2.083
 4457SOL     OW43864   4.548   5.308   2.081
 4457SOL    HW143865   4.580   5.318   1.987
 4457SOL    HW243866   4.469   5.246   2.083
 4458SOL     OW43867   3.174   0.451   2.085
 4458SOL    HW143868   3.115   0.531   2.089
 4458SOL    HW243869   3.189   0.416   2.178
 4459SOL     OW43870   5.036   2.313   2.085
 4459SOL    HW143871   4.977   2.393   2.089
 4459SOL    HW243872   5.051   2.278   2.178
 4460SOL     OW43873   1.051   2.958   2.090
 4460SOL    HW143874   0.981   2.911   2.144
 4460SOL    HW243875   1.110   2.890   2.047
 4461SOL     OW43876   1.051   4.820   2.090
 4461SOL    HW143877   0.981   4.773   2.144
 4461SOL    HW243878   1.110   4.752   2.047
 4462SOL     OW43879   2.913   2.958   2.090
 4462SOL    HW143880   2.843   2.911   2.144
 4462SOL    HW243881   2.972   2.890   2.047
 4463SOL     OW43882   4.775   2.958   2.090
 4463SOL    HW143883   4.705   2.911   2.144
 4463SOL    HW243884   4.834   2.890   2.047
 4464SOL     OW43885   1.567   1.509   2.097
 4464SOL    HW143886   1.510   1.493   2.178
 4464SOL    HW243887   1.508   1.519   2.017
 4465SOL     OW43888   3.429   1.509   2.097
 4465SOL    HW143889   3.372   1.493   2.178
 4465SOL    HW243890   3.370   1.519   2.017
 4466SOL     OW43891   5.291   3.371   2.097
 4466SOL    HW143892   5.234   3.355   2.178
 4466SOL    HW243893   5.232   3.381   2.017
 4467SOL     OW43894   3.378   3.467  10.748
 4467SOL    HW143895   3.286   3.504  10.755
 4467SOL    HW243896   3.416   3.487  10.658
 4468SOL     OW43897   1.315   4.560  10.746
 4468SOL    HW143898   1.349   4.467  10.761
 4468SOL    HW243899   1.333   4.587  10.651
 4469SOL     OW43900   3.177   0.836  10.746
 4469SOL    HW143901   3.211   0.743  10.761
 4469SOL    HW243902   3.195   0.863  10.651
 4470SOL     OW43903   3.177   2.698  10.746
 4470SOL    HW143904   3.211   2.605  10.761
 4470SOL    HW243905   3.195   2.725  10.651
 4471SOL     OW43906   3.308   1.186  10.745
 4471SOL    HW143907   3.340   1.110  10.802
 4471SOL    HW243908   3.216   1.213  10.775
 4472SOL     OW43909   0.087   0.343  10.737
 4472SOL    HW143910   6.445   0.315  10.708
 4472SOL    HW243911   0.118   0.420  10.681
 4473SOL     OW43912   0.087   5.929  10.737
 4473SOL    HW143913   6.445   5.901  10.708
 4473SOL    HW243914   0.118   6.006  10.681
 4474SOL     OW43915   1.949   0.343  10.737
 4474SOL    HW143916   1.857   0.315  10.708
 4474SOL    HW243917   1.980   0.420  10.681
 4475SOL     OW43918   1.949   2.205  10.737
 4475SOL    HW143919   1.857   2.177  10.708
 4475SOL    HW243920   1.980   2.282  10.681
 4476SOL     OW43921   3.811   5.929  10.737
 4476SOL    HW143922   3.719   5.901  10.708
 4476SOL    HW243923   3.842   6.006  10.681
 4477SOL     OW43924   1.206   1.610  10.735
 4477SOL    HW143925   1.212   1.517  10.772
 4477SOL    HW243926   1.147   1.610  10.655
 4478SOL     OW43927   4.930   3.472  10.735
 4478SOL    HW143928   4.936   3.379  10.772
 4478SOL    HW243929   4.871   3.472  10.655
 4479SOL     OW43930   1.147   0.701   2.111
 4479SOL    HW143931   1.204   0.779   2.086
 4479SOL    HW243932   1.087   0.727   2.187
 4480SOL     OW43933   3.009   0.701   2.111
 4480SOL    HW143934   3.066   0.779   2.086
 4480SOL    HW243935   2.949   0.727   2.187
 4481SOL     OW43936   3.009   4.425   2.111
 4481SOL    HW143937   3.066   4.503   2.086
 4481SOL    HW243938   2.949   4.451   2.187
 4482SOL     OW43939   4.871   0.701   2.111
 4482SOL    HW143940   4.928   0.779   2.086
 4482SOL    HW243941   4.811   0.727   2.187
 4483SOL     OW43942   5.861   0.324   2.114
 4483SOL    HW143943   5.782   0.375   2.080
 4483SOL    HW243944   5.852   0.309   2.212
 4484SOL     OW43945   4.349   3.225   2.120
 4484SOL    HW143946   4.300   3.138   2.129
 4484SOL    HW243947   4.326   3.268   2.033
 4485SOL     OW43948   6.211   3.225   2.120
 4485SOL    HW143949   6.162   3.138   2.129
 4485SOL    HW243950   6.188   3.268   2.033
 4486SOL     OW43951   1.470   4.457   2.122
 4486SOL    HW143952   1.465   4.392   2.197
 4486SOL    HW243953   1.550   4.516   2.135
 4487SOL     OW43954   3.332   4.457   2.122
 4487SOL    HW143955   3.327   4.392   2.197
 4487SOL    HW243956   3.412   4.516   2.135
 4488SOL     OW43957   5.194   0.733   2.122
 4488SOL    HW143958   5.189   0.668   2.197
 4488SOL    HW243959   5.274   0.792   2.135
 4489SOL     OW43960   5.194   4.457   2.122
 4489SOL    HW143961   5.189   4.392   2.197
 4489SOL    HW243962   5.274   4.516   2.135
 4490SOL     OW43963   1.044   2.409  10.720
 4490SOL    HW143964   1.003   2.491  10.681
 4490SOL    HW243965   1.108   2.435  10.793
 4491SOL     OW43966   2.733   1.372  10.720
 4491SOL    HW143967   2.687   1.387  10.808
 4491SOL    HW243968   2.777   1.457  10.690
 4492SOL     OW43969   2.906   2.409  10.720
 4492SOL    HW143970   2.865   2.491  10.681
 4492SOL    HW243971   2.970   2.435  10.793
 4493SOL     OW43972   4.595   3.234  10.720
 4493SOL    HW143973   4.549   3.249  10.808
 4493SOL    HW243974   4.639   3.319  10.690
 4494SOL     OW43975   4.595   5.096  10.720
 4494SOL    HW143976   4.549   5.111  10.808
 4494SOL    HW243977   4.639   5.181  10.690
 4495SOL     OW43978   3.477   2.307   2.131
 4495SOL    HW143979   3.403   2.353   2.081
 4495SOL    HW243980   3.528   2.375   2.184
 4496SOL     OW43981   0.471   3.012   2.135
 4496SOL    HW143982   0.400   2.985   2.200
 4496SOL    HW243983   0.445   2.984   2.042
 4497SOL     OW43984   6.057   1.150   2.135
 4497SOL    HW143985   5.986   1.123   2.200
 4497SOL    HW243986   6.031   1.122   2.042
 4498SOL     OW43987   6.057   3.012   2.135
 4498SOL    HW143988   5.986   2.985   2.200
 4498SOL    HW243989   6.031   2.984   2.042
 4499SOL     OW43990   1.029   3.761   2.147
 4499SOL    HW143991   0.957   3.766   2.078
 4499SOL    HW243992   1.005   3.692   2.216
 4500SOL     OW43993   2.891   1.899   2.147
 4500SOL    HW143994   2.819   1.904   2.078
 4500SOL    HW243995   2.867   1.830   2.216
 4501SOL     OW43996   4.753   5.623   2.147
 4501SOL    HW143997   4.681   5.628   2.078
 4501SOL    HW243998   4.729   5.554   2.216
 4502SOL     OW43999   1.740   2.795  10.696
 4502SOL    HW144000   1.694   2.788  10.607
 4502SOL    HW244001   1.678   2.839  10.762
 4503SOL     OW44002   1.740   0.069  10.696
 4503SOL    HW144003   1.694   0.062  10.607
 4503SOL    HW244004   1.678   0.113  10.762
 4504SOL     OW44005   5.464   0.933  10.696
 4504SOL    HW144006   5.418   0.926  10.607
 4504SOL    HW244007   5.402   0.977  10.762
 4505SOL     OW44008   5.464   2.795  10.696
 4505SOL    HW144009   5.418   2.788  10.607
 4505SOL    HW244010   5.402   2.839  10.762
 4506SOL     OW44011   0.142   1.792  10.693
 4506SOL    HW144012   0.101   1.718  10.746
 4506SOL    HW244013   0.206   1.843  10.751
 4507SOL     OW44014   0.142   3.654  10.693
 4507SOL    HW144015   0.101   3.580  10.746
 4507SOL    HW244016   0.206   3.705  10.751
 4508SOL     OW44017   2.004   5.516  10.693
 4508SOL    HW144018   1.963   5.442  10.746
 4508SOL    HW244019   2.068   5.567  10.751
 4509SOL     OW44020   3.866   1.792  10.693
 4509SOL    HW144021   3.825   1.718  10.746
 4509SOL    HW244022   3.930   1.843  10.751
 4510SOL     OW44023   5.728   3.654  10.693
 4510SOL    HW144024   5.687   3.580  10.746
 4510SOL    HW244025   5.792   3.705  10.751
 4511SOL     OW44026   0.233   3.174  10.686
 4511SOL    HW144027   0.168   3.101  10.665
 4511SOL    HW244028   0.237   3.188  10.784
 4512SOL     OW44029   2.095   5.036  10.686
 4512SOL    HW144030   2.030   4.963  10.665
 4512SOL    HW244031   2.099   5.050  10.784
 4513SOL     OW44032   3.957   3.174  10.686
 4513SOL    HW144033   3.892   3.101  10.665
 4513SOL    HW244034   3.961   3.188  10.784
 4514SOL     OW44035   5.819   3.174  10.686
 4514SOL    HW144036   5.754   3.101  10.665
 4514SOL    HW244037   5.823   3.188  10.784
 4515SOL     OW44038   5.819   5.036  10.686
 4515SOL    HW144039   5.754   4.963  10.665
 4515SOL    HW244040   5.823   5.050  10.784
 4516SOL     OW44041   1.731   0.583  10.673
 4516SOL    HW144042   1.705   0.672  10.637
 4516SOL    HW244043   1.729   0.515  10.600
 4517SOL     OW44044   5.455   2.445  10.673
 4517SOL    HW144045   5.429   2.534  10.637
 4517SOL    HW244046   5.453   2.377  10.600
 4518SOL     OW44047   5.455   4.307  10.673
 4518SOL    HW144048   5.429   4.396  10.637
 4518SOL    HW244049   5.453   4.239  10.600
 4519SOL     OW44050   2.724   0.796  10.665
 4519SOL    HW144051   2.720   0.872  10.730
 4519SOL    HW244052   2.746   0.832  10.574
 4520SOL     OW44053   4.586   4.520  10.665
 4520SOL    HW144054   4.582   4.596  10.730
 4520SOL    HW244055   4.608   4.556  10.574
 4521SOL     OW44056   0.088   4.533   2.183
 4521SOL    HW144057   0.187   4.521   2.192
 4521SOL    HW244058   0.064   4.628   2.204
 4522SOL     OW44059   1.950   0.809   2.183
 4522SOL    HW144060   2.049   0.797   2.192
 4522SOL    HW244061   1.926   0.904   2.204
 4523SOL     OW44062   1.239   1.568   2.187
 4523SOL    HW144063   1.260   1.642   2.122
 4523SOL    HW244064   1.307   1.568   2.260
 4524SOL     OW44065   1.239   5.292   2.187
 4524SOL    HW144066   1.260   5.366   2.122
 4524SOL    HW244067   1.307   5.292   2.260
 4525SOL     OW44068   4.963   3.430   2.187
 4525SOL    HW144069   4.984   3.504   2.122
 4525SOL    HW244070   5.031   3.430   2.260
 4526SOL     OW44071   0.698   3.021  10.645
 4526SOL    HW144072   0.758   3.100  10.659
 4526SOL    HW244073   0.612   3.052  10.604
 4527SOL     OW44074   0.698   4.883  10.645
 4527SOL    HW144075   0.758   4.962  10.659
 4527SOL    HW244076   0.612   4.914  10.604
 4528SOL     OW44077   0.329   5.835  10.643
 4528SOL    HW144078   0.400   5.906  10.649
 4528SOL    HW244079   0.241   5.874  10.671
 4529SOL     OW44080   4.053   0.249  10.643
 4529SOL    HW144081   4.124   0.320  10.649
 4529SOL    HW244082   3.965   0.288  10.671
 4530SOL     OW44083   1.080   1.331   2.243
 4530SOL    HW144084   1.087   1.247   2.188
 4530SOL    HW244085   1.142   1.400   2.207
 4531SOL     OW44086   4.804   5.055   2.243
 4531SOL    HW144087   4.811   4.971   2.188
 4531SOL    HW244088   4.866   5.124   2.207
 4532SOL     OW44089   3.735   3.429   2.245
 4532SOL    HW144090   3.664   3.417   2.175
 4532SOL    HW244091   3.736   3.350   2.305
 4533SOL     OW44092   3.735   5.291   2.245
 4533SOL    HW144093   3.664   5.279   2.175
 4533SOL    HW244094   3.736   5.212   2.305
 4534SOL     OW44095   2.225   3.661   2.247
 4534SOL    HW144096   2.275   3.575   2.253
 4534SOL    HW244097   2.290   3.738   2.244
 4535SOL     OW44098   0.871   2.816   2.255
 4535SOL    HW144099   0.925   2.747   2.303
 4535SOL    HW244100   0.839   2.885   2.321
 4536SOL     OW44101   0.871   4.678   2.255
 4536SOL    HW144102   0.925   4.609   2.303
 4536SOL    HW244103   0.839   4.747   2.321
 4537SOL     OW44104   2.733   0.954   2.255
 4537SOL    HW144105   2.787   0.885   2.303
 4537SOL    HW244106   2.701   1.023   2.321
 4538SOL     OW44107   2.733   2.816   2.255
 4538SOL    HW144108   2.787   2.747   2.303
 4538SOL    HW244109   2.701   2.885   2.321
 4539SOL     OW44110   0.578   2.397   2.259
 4539SOL    HW144111   0.590   2.463   2.185
 4539SOL    HW244112   0.624   2.431   2.342
 4540SOL     OW44113   0.578   6.121   2.259
 4540SOL    HW144114   0.590   6.187   2.185
 4540SOL    HW244115   0.624   6.155   2.342
 4541SOL     OW44116   4.302   2.397   2.259
 4541SOL    HW144117   4.314   2.463   2.185
 4541SOL    HW244118   4.348   2.431   2.342
 4542SOL     OW44119   4.302   6.121   2.259
 4542SOL    HW144120   4.314   6.187   2.185
 4542SOL    HW244121   4.348   6.155   2.342
 4543SOL     OW44122   0.264   5.286  10.586
 4543SOL    HW144123   0.234   5.343  10.662
 4543SOL    HW244124   0.257   5.189  10.612
 4544SOL     OW44125   3.988   5.286  10.586
 4544SOL    HW144126   3.958   5.343  10.662
 4544SOL    HW244127   3.981   5.189  10.612
 4545SOL     OW44128   1.441   1.171   2.261
 4545SOL    HW144129   1.386   1.087   2.254
 4545SOL    HW244130   1.467   1.200   2.169
 4546SOL     OW44131   1.441   4.895   2.261
 4546SOL    HW144132   1.386   4.811   2.254
 4546SOL    HW244133   1.467   4.924   2.169
 4547SOL     OW44134   3.303   4.895   2.261
 4547SOL    HW144135   3.248   4.811   2.254
 4547SOL    HW244136   3.329   4.924   2.169
 4548SOL     OW44137   0.516   3.772  10.582
 4548SOL    HW144138   0.474   3.715  10.512
 4548SOL    HW244139   0.450   3.841  10.614
 4549SOL     OW44140   0.516   5.634  10.582
 4549SOL    HW144141   0.474   5.577  10.512
 4549SOL    HW244142   0.450   5.703  10.614
 4550SOL     OW44143   2.378   3.772  10.582
 4550SOL    HW144144   2.336   3.715  10.512
 4550SOL    HW244145   2.312   3.841  10.614
 4551SOL     OW44146   4.240   3.772  10.582
 4551SOL    HW144147   4.198   3.715  10.512
 4551SOL    HW244148   4.174   3.841  10.614
 4552SOL     OW44149   6.102   3.772  10.582
 4552SOL    HW144150   6.060   3.715  10.512
 4552SOL    HW244151   6.036   3.841  10.614
 4553SOL     OW44152   1.807   1.064   2.267
 4553SOL    HW144153   1.745   1.049   2.191
 4553SOL    HW244154   1.755   1.075   2.352
 4554SOL     OW44155   3.669   1.064   2.267
 4554SOL    HW144156   3.607   1.049   2.191
 4554SOL    HW244157   3.617   1.075   2.352
 4555SOL     OW44158   3.669   2.926   2.267
 4555SOL    HW144159   3.607   2.911   2.191
 4555SOL    HW244160   3.617   2.937   2.352
 4556SOL     OW44161   5.531   1.064   2.267
 4556SOL    HW144162   5.469   1.049   2.191
 4556SOL    HW244163   5.479   1.075   2.352
 4557SOL     OW44164   1.559   0.220  10.571
 4557SOL    HW144165   1.554   0.257  10.663
 4557SOL    HW244166   1.487   0.151  10.559
 4558SOL     OW44167   1.559   3.944  10.571
 4558SOL    HW144168   1.554   3.981  10.663
 4558SOL    HW244169   1.487   3.875  10.559
 4559SOL     OW44170   1.605   5.805   2.276
 4559SOL    HW144171   1.521   5.804   2.330
 4559SOL    HW244172   1.607   5.888   2.220
 4560SOL     OW44173   2.335   4.988  10.569
 4560SOL    HW144174   2.285   4.989  10.483
 4560SOL    HW244175   2.272   4.970  10.645
 4561SOL     OW44176   4.197   1.264  10.569
 4561SOL    HW144177   4.147   1.265  10.483
 4561SOL    HW244178   4.134   1.246  10.645
 4562SOL     OW44179   6.059   3.126  10.569
 4562SOL    HW144180   6.009   3.127  10.483
 4562SOL    HW244181   5.996   3.108  10.645
 4563SOL     OW44182   0.117   0.147  10.568
 4563SOL    HW144183   0.040   0.114  10.622
 4563SOL    HW244184   0.202   0.117  10.610
 4564SOL     OW44185   1.979   4.735  10.568
 4564SOL    HW144186   1.902   4.702  10.622
 4564SOL    HW244187   2.064   4.705  10.610
 4565SOL     OW44188   1.979   0.147  10.568
 4565SOL    HW144189   1.902   0.114  10.622
 4565SOL    HW244190   2.064   0.117  10.610
 4566SOL     OW44191   0.562   0.194   2.279
 4566SOL    HW144192   0.557   0.189   2.379
 4566SOL    HW244193   0.564   0.290   2.250
 4567SOL     OW44194   0.562   2.056   2.279
 4567SOL    HW144195   0.557   2.051   2.379
 4567SOL    HW244196   0.564   2.152   2.250
 4568SOL     OW44197   2.424   5.780   2.279
 4568SOL    HW144198   2.419   5.775   2.379
 4568SOL    HW244199   2.426   5.876   2.250
 4569SOL     OW44200   2.114   1.089   2.280
 4569SOL    HW144201   2.128   1.005   2.332
 4569SOL    HW244202   2.059   1.153   2.335
 4570SOL     OW44203   5.838   2.951   2.280
 4570SOL    HW144204   5.852   2.867   2.332
 4570SOL    HW244205   5.783   3.015   2.335
 4571SOL     OW44206   0.201   4.242  10.564
 4571SOL    HW144207   0.260   4.202  10.494
 4571SOL    HW244208   0.143   4.313  10.523
 4572SOL     OW44209   2.063   4.242  10.564
 4572SOL    HW144210   2.122   4.202  10.494
 4572SOL    HW244211   2.005   4.313  10.523
 4573SOL     OW44212   3.925   2.380  10.564
 4573SOL    HW144213   3.984   2.340  10.494
 4573SOL    HW244214   3.867   2.451  10.523
 4574SOL     OW44215   2.854   1.114  10.561
 4574SOL    HW144216   2.755   1.120  10.571
 4574SOL    HW244217   2.877   1.034  10.505
 4575SOL     OW44218   2.854   4.838  10.561
 4575SOL    HW144219   2.755   4.844  10.571
 4575SOL    HW244220   2.877   4.758  10.505
 4576SOL     OW44221   4.716   2.976  10.561
 4576SOL    HW144222   4.617   2.982  10.571
 4576SOL    HW244223   4.739   2.896  10.505
 4577SOL     OW44224   0.700   1.660  10.558
 4577SOL    HW144225   0.644   1.741  10.567
 4577SOL    HW244226   0.752   1.664  10.472
 4578SOL     OW44227   2.562   5.384  10.558
 4578SOL    HW144228   2.506   5.465  10.567
 4578SOL    HW244229   2.614   5.388  10.472
 4579SOL     OW44230   4.424   5.384  10.558
 4579SOL    HW144231   4.368   5.465  10.567
 4579SOL    HW244232   4.476   5.388  10.472
 4580SOL     OW44233   6.286   3.522  10.558
 4580SOL    HW144234   6.230   3.603  10.567
 4580SOL    HW244235   6.338   3.526  10.472
 4581SOL     OW44236   0.934   0.501   2.293
 4581SOL    HW144237   0.909   0.492   2.197
 4581SOL    HW244238   0.982   0.419   2.324
 4582SOL     OW44239   0.934   6.087   2.293
 4582SOL    HW144240   0.909   6.078   2.197
 4582SOL    HW244241   0.982   6.005   2.324
 4583SOL     OW44242   0.070   2.363   2.293
 4583SOL    HW144243   0.045   2.354   2.197
 4583SOL    HW244244   0.118   2.281   2.324
 4584SOL     OW44245   0.728   0.563  10.550
 4584SOL    HW144246   0.747   0.628  10.624
 4584SOL    HW244247   0.788   0.483  10.559
 4585SOL     OW44248   0.728   6.149  10.550
 4585SOL    HW144249   0.747   6.214  10.624
 4585SOL    HW244250   0.788   6.069  10.559
 4586SOL     OW44251   2.590   0.563  10.550
 4586SOL    HW144252   2.609   0.628  10.624
 4586SOL    HW244253   2.650   0.483  10.559
 4587SOL     OW44254   2.590   4.287  10.550
 4587SOL    HW144255   2.609   4.352  10.624
 4587SOL    HW244256   2.650   4.207  10.559
 4588SOL     OW44257   6.314   0.563  10.550
 4588SOL    HW144258   6.333   0.628  10.624
 4588SOL    HW244259   6.374   0.483  10.559
 4589SOL     OW44260   6.314   4.287  10.550
 4589SOL    HW144261   6.333   4.352  10.624
 4589SOL    HW244262   6.374   4.207  10.559
 4590SOL     OW44263   2.814   1.696   2.298
 4590SOL    HW144264   2.894   1.639   2.319
 4590SOL    HW244265   2.765   1.656   2.221
 4591SOL     OW44266   2.814   5.420   2.298
 4591SOL    HW144267   2.894   5.363   2.319
 4591SOL    HW244268   2.765   5.380   2.221
 4592SOL     OW44269   4.676   3.558   2.298
 4592SOL    HW144270   4.756   3.501   2.319
 4592SOL    HW244271   4.627   3.518   2.221
 4593SOL     OW44272   4.676   5.420   2.298
 4593SOL    HW144273   4.756   5.363   2.319
 4593SOL    HW244274   4.627   5.380   2.221
 4594SOL     OW44275   0.992   1.571  10.542
 4594SOL    HW144276   0.972   1.615  10.454
 4594SOL    HW244277   1.031   1.480  10.526
 4595SOL     OW44278   4.716   1.571  10.542
 4595SOL    HW144279   4.696   1.615  10.454
 4595SOL    HW244280   4.755   1.480  10.526
 4596SOL     OW44281   4.716   3.433  10.542
 4596SOL    HW144282   4.696   3.477  10.454
 4596SOL    HW244283   4.755   3.342  10.526
 4597SOL     OW44284   6.102   3.428   2.304
 4597SOL    HW144285   6.168   3.502   2.313
 4597SOL    HW244286   6.146   3.349   2.262
 4598SOL     OW44287   4.863   1.339  10.532
 4598SOL    HW144288   4.910   1.339  10.620
 4598SOL    HW244289   4.815   1.252  10.521
 4599SOL     OW44290   4.539   3.262   2.318
 4599SOL    HW144291   4.629   3.276   2.276
 4599SOL    HW244292   4.468   3.264   2.247
 4600SOL     OW44293   4.539   5.124   2.318
 4600SOL    HW144294   4.629   5.138   2.276
 4600SOL    HW244295   4.468   5.126   2.247
 4601SOL     OW44296   1.962   3.661   2.321
 4601SOL    HW144297   1.920   3.575   2.294
 4601SOL    HW244298   2.056   3.664   2.287
 4602SOL     OW44299   5.686   3.661   2.321
 4602SOL    HW144300   5.644   3.575   2.294
 4602SOL    HW244301   5.780   3.664   2.287
 4603SOL     OW44302   3.012   2.240  10.520
 4603SOL    HW144303   2.967   2.303  10.584
 4603SOL    HW244304   3.105   2.271  10.503
 4604SOL     OW44305   3.012   5.964  10.520
 4604SOL    HW144306   2.967   6.027  10.584
 4604SOL    HW244307   3.105   5.995  10.503
 4605SOL     OW44308   1.406   6.053  10.516
 4605SOL    HW144309   1.386   6.096  10.604
 4605SOL    HW244310   1.484   5.991  10.525
 4606SOL     OW44311   3.268   4.191  10.516
 4606SOL    HW144312   3.248   4.234  10.604
 4606SOL    HW244313   3.346   4.129  10.525
 4607SOL     OW44314   3.268   6.053  10.516
 4607SOL    HW144315   3.248   6.096  10.604
 4607SOL    HW244316   3.346   5.991  10.525
 4608SOL     OW44317   1.599   2.639  10.512
 4608SOL    HW144318   1.507   2.677  10.507
 4608SOL    HW244319   1.659   2.686  10.447
 4609SOL     OW44320   3.461   2.639  10.512
 4609SOL    HW144321   3.369   2.677  10.507
 4609SOL    HW244322   3.521   2.686  10.447
 4610SOL     OW44323   5.323   4.501  10.512
 4610SOL    HW144324   5.231   4.539  10.507
 4610SOL    HW244325   5.383   4.548  10.447
 4611SOL     OW44326   5.323   6.363  10.512
 4611SOL    HW144327   5.231   6.401  10.507
 4611SOL    HW244328   5.383   6.410  10.447
 4612SOL     OW44329   1.293   4.067   2.338
 4612SOL    HW144330   1.207   4.017   2.325
 4612SOL    HW244331   1.355   4.013   2.394
 4613SOL     OW44332   5.017   4.067   2.338
 4613SOL    HW144333   4.931   4.017   2.325
 4613SOL    HW244334   5.079   4.013   2.394
 4614SOL     OW44335   5.017   5.929   2.338
 4614SOL    HW144336   4.931   5.879   2.325
 4614SOL    HW244337   5.079   5.875   2.394
 4615SOL     OW44338   0.331   4.532   2.343
 4615SOL    HW144339   0.424   4.568   2.348
 4615SOL    HW244340   0.325   4.447   2.395
 4616SOL     OW44341   0.331   6.394   2.343
 4616SOL    HW144342   0.424   6.430   2.348
 4616SOL    HW244343   0.325   6.309   2.395
 4617SOL     OW44344   2.193   4.532   2.343
 4617SOL    HW144345   2.286   4.568   2.348
 4617SOL    HW244346   2.187   4.447   2.395
 4618SOL     OW44347   5.917   2.670   2.343
 4618SOL    HW144348   6.010   2.706   2.348
 4618SOL    HW244349   5.911   2.585   2.395
 4619SOL     OW44350   4.397   1.788   2.347
 4619SOL    HW144351   4.351   1.876   2.334
 4619SOL    HW244352   4.496   1.800   2.340
 4620SOL     OW44353   4.397   3.650   2.347
 4620SOL    HW144354   4.351   3.738   2.334
 4620SOL    HW244355   4.496   3.662   2.340
 4621SOL     OW44356   4.397   5.512   2.347
 4621SOL    HW144357   4.351   5.600   2.334
 4621SOL    HW244358   4.496   5.524   2.340
 4622SOL     OW44359   1.462   1.218  10.475
 4622SOL    HW144360   1.453   1.208  10.574
 4622SOL    HW244361   1.558   1.211  10.449
 4623SOL     OW44362   1.462   4.942  10.475
 4623SOL    HW144363   1.453   4.932  10.574
 4623SOL    HW244364   1.558   4.935  10.449
 4624SOL     OW44365   3.324   1.218  10.475
 4624SOL    HW144366   3.315   1.208  10.574
 4624SOL    HW244367   3.420   1.211  10.449
 4625SOL     OW44368   0.684   3.251  10.466
 4625SOL    HW144369   0.606   3.201  10.504
 4625SOL    HW244370   0.681   3.346  10.497
 4626SOL     OW44371   4.408   5.113  10.466
 4626SOL    HW144372   4.330   5.063  10.504
 4626SOL    HW244373   4.405   5.208  10.497
 4627SOL     OW44374   0.351   0.507   2.400
 4627SOL    HW144375   0.299   0.424   2.383
 4627SOL    HW244376   0.428   0.512   2.336
 4628SOL     OW44377   0.351   2.369   2.400
 4628SOL    HW144378   0.299   2.286   2.383
 4628SOL    HW244379   0.428   2.374   2.336
 4629SOL     OW44380   4.075   2.369   2.400
 4629SOL    HW144381   4.023   2.286   2.383
 4629SOL    HW244382   4.152   2.374   2.336
   6.44980   6.44980  12.86200
